ITEM: TIMESTEP
150000
ITEM: NUMBER OF ATOMS
24050
ITEM: BOX BOUNDS pp pp pp
-60.1326934809 60.1326934809
-53.93918023 53.93918023
-53.6233749296 53.6233749296
ITEM: ATOMS type id x y z
1 104 -38.3218 6.91938 -29.3945
1 98 -45.6062 8.29286 -29.082
1 100 -43.4121 7.71005 -29.2094
1 134 -43.5573 10.2566 -28.4624
1 102 -40.8399 7.48568 -29.3005
1 136 -41.2151 9.84205 -28.5556
1 138 -38.8908 9.16012 -28.6473
1 11 -35.4038 10.1868 -29.8902
1 140 -36.4972 8.524 -28.5101
1 142 -33.7707 8.91756 -28.8462
1 22 -50.1022 12.792 -29.5852
1 6 -47.4864 12.6717 -29.8287
1 7 -44.9618 12.1445 -29.982
1 8 -42.2533 11.6622 -30.2257
1 9 -39.8756 11.4381 -30.4726
1 26 -40.588 13.8421 -29.7426
1 27 -38.1772 13.3874 -29.7753
1 10 -37.4714 10.9068 -30.0404
1 28 -35.7351 13.1815 -29.4463
1 29 -33.9083 11.6467 -28.6267
1 24 -45.5715 14.4191 -29.4523
1 23 -48.1922 14.7783 -28.9859
1 25 -43.1812 14.3662 -29.5587
1 42 -43.9111 16.684 -29.0098
1 43 -41.2986 16.446 -29.0753
1 44 -38.6546 15.8898 -29.2124
1 45 -36.2787 15.4528 -29.1829
1 60 -41.9149 18.914 -28.431
1 61 -39.1584 18.0335 -28.5822
1 62 -36.8014 17.9358 -28.8638
1 731 -24.47 -16.5962 -24.765
1 8868 -21.2512 -16.2085 -24.8757
1 340 -24.2619 -12.3299 -25.8015
1 8884 -22.572 -14.3918 -24.9183
1 8886 -21.4017 -12.2819 -26.1169
1 16364 -59.8684 11.2394 -19.5323
1 8489 -22.8694 -10.3467 -26.7451
1 8507 -21.4228 -8.28058 -27.497
1 8506 -22.591 -7.95784 -25.5338
1 4586 -22.1901 -23.5603 -0.159188
1 3767 -28.2204 8.70662 -0.102598
1 8505 -23.8082 -5.77777 -26.1866
1 8540 -21.2073 -5.90413 -26.7515
1 8242 -22.4674 -3.86361 -27.1799
1 3349 -21.3548 29.4543 -2.97515
1 329 -47.9601 -0.633151 -24.9333
1 332 -40.4427 -1.06339 -25.0673
1 363 -36.0205 -3.27392 -25.6166
1 361 -37.8615 -1.28435 -26.4764
1 81 -32.7045 -0.58833 -25.7386
1 114 -31.1774 -2.31431 -24.8144
1 116 -28.5683 -2.13644 -25.5833
1 112 -30.2192 -0.322405 -26.1301
1 85 -23.9831 -3.39004 -25.2608
1 118 -26.0169 -1.99242 -26.3612
1 8258 -23.8748 -1.41578 -27.4506
1 8260 -21.1258 -1.91892 -28.0088
1 8259 -22.0577 -1.43486 -25.8297
1 8573 -20.6898 -3.30385 -25.6533
1 1 -58.571 2.08303 -25.5809
1 88 -55.2804 2.07398 -25.511
1 383 -50.9166 3.04177 -25.6194
1 351 -49.0577 1.29472 -26.4126
1 353 -46.696 1.26338 -26.3505
1 385 -48.2063 3.27513 -25.403
1 387 -45.7869 3.31428 -25.0436
1 355 -44.2013 1.79538 -26.211
1 331 -43.0347 0.013231 -24.96
1 357 -41.592 1.3951 -26.594
1 359 -39.297 0.534916 -26.9939
1 393 -38.8801 2.96605 -26.2274
1 79 -36.0624 2.92982 -26.8397
1 395 -37.4301 1.27392 -25.5543
1 80 -34.8242 1.08637 -26.2086
1 108 -33.6134 3.10126 -27.4538
1 110 -31.9767 1.3505 -27.0142
1 111 -32.8257 2.11098 -24.6752
1 148 -30.1146 2.13683 -25.4859
1 16 -27.454 2.27126 -26.3107
1 17 -24.8877 2.27613 -26.7109
1 152 -26.0418 0.733905 -25.2788
1 8291 -23.2928 0.474963 -25.8716
1 8293 -20.758 0.464989 -26.8079
1 8178 -22.2222 2.56356 -27.2421
1 8326 -20.4094 3.0294 -25.7873
1 2 -56.0693 6.52489 -25.8322
1 16148 -57.9883 4.73407 -25.0078
1 90 -53.4251 3.41584 -26.0709
1 92 -52.761 6.81277 -27.8062
1 72 -51.6728 4.89117 -26.9012
1 94 -50.3761 7.07965 -28.1288
1 73 -49.226 5.13966 -26.9638
1 74 -46.5281 5.05858 -26.4319
1 75 -44.5709 6.50066 -27.2876
1 76 -42.1305 5.85309 -27.5018
1 389 -43.7456 4.36369 -25.8384
1 423 -43.3379 7.09688 -25.3645
1 391 -41.1945 3.82569 -26.0341
1 425 -41.095 6.32744 -25.3382
1 77 -39.9681 5.34708 -27.8419
1 427 -38.6875 5.59033 -25.5749
1 78 -37.6136 4.64592 -27.7984
1 107 -35.9354 5.42084 -26.2522
1 109 -34.2381 3.83329 -25.3613
1 144 -33.4224 5.60117 -26.6261
1 146 -31.6836 3.84514 -26.04
1 180 -31.5109 6.89874 -25.3844
1 14 -30.5758 5.59832 -27.3734
1 15 -28.7717 4.0085 -26.8907
1 32 -28.6199 6.72829 -26.1328
1 33 -27.0429 5.02018 -25.3635
1 34 -24.4441 4.89175 -25.9145
1 8324 -22.7124 3.02919 -24.964
1 8194 -22.016 4.97142 -26.6373
1 8359 -20.6647 6.94139 -25.6417
1 19 -56.4827 8.99684 -25.2917
1 3 -54.546 8.16351 -26.8786
1 158 -54.5727 10.465 -25.9496
1 93 -51.3121 6.92695 -25.7474
1 126 -52.1862 9.08735 -27.2774
1 128 -49.5727 9.24108 -26.8096
1 4 -50.7714 10.9085 -28.1944
1 95 -48.806 7.17067 -25.8174
1 96 -47.4365 6.81476 -27.9373
1 97 -46.1523 7.54634 -25.389
1 130 -47.2049 9.05041 -27.0492
1 132 -46.0545 10.6486 -28.5034
1 99 -44.7341 8.8735 -26.7806
1 101 -42.411 8.30927 -27.0517
1 103 -39.887 7.80606 -26.997
1 137 -40.0929 10.1855 -26.4701
1 461 -38.7302 8.23603 -24.841
1 139 -37.6393 9.68262 -26.578
1 459 -41.1546 8.94655 -24.8033
1 105 -37.6077 7.12242 -27.0036
1 106 -34.7968 7.11899 -27.4065
1 176 -34.951 10.0516 -26.9497
1 141 -35.9659 8.20514 -25.7094
1 13 -32.3216 7.42197 -28.1671
1 178 -33.1402 8.49524 -26.0676
1 30 -32.0465 10.1757 -27.7358
1 12 -29.4606 10.5316 -27.938
1 31 -30.3959 8.44002 -26.8541
1 49 -28.1903 9.52153 -25.7678
1 51 -24.6181 7.89645 -25.7841
1 8210 -22.3591 8.4941 -26.2718
1 8392 -21.1213 11.0315 -25.579
1 35 -57.275 11.064 -26.1119
1 36 -56.954 13.7328 -25.7932
1 20 -54.8165 12.55 -27.1281
1 160 -52.0376 11.0561 -25.7307
1 21 -51.6293 12.8863 -27.1463
1 162 -49.796 11.491 -25.7775
1 164 -49.0712 13.2405 -27.246
1 5 -48.3657 10.932 -28.3189
1 166 -46.5975 12.9405 -27.6242
1 131 -47.347 11.3471 -25.9664
1 167 -45.2564 13.4085 -25.5112
1 135 -42.5612 10.6627 -26.2275
1 133 -45.0774 11.0781 -26.1828
1 170 -41.4523 12.2613 -27.9768
1 168 -44.0238 12.647 -27.901
1 169 -42.8654 12.9834 -25.906
1 172 -39.0415 11.8802 -28.1686
1 171 -40.3627 12.7955 -26.0814
1 173 -38.0092 12.4057 -26.0129
1 175 -36.0556 11.2203 -25.016
1 174 -36.6432 11.5625 -27.9281
1 210 -34.8289 12.6585 -26.6016
1 208 -37.0557 14.0444 -27.4264
1 46 -33.9131 14.3716 -28.4722
1 212 -33.2501 11.1423 -25.647
1 47 -32.2897 12.9463 -27.2244
1 246 -33.4647 14.1147 -25.5949
1 48 -30.6387 11.2559 -26.1244
1 66 -28.8347 13.1657 -25.4955
1 68 -25.0025 12.2579 -25.7327
1 8423 -23.7811 14.3444 -25.0128
1 8226 -22.621 12.5707 -26.3797
1 8227 -20.3419 13.1071 -27.1814
1 38 -53.1978 14.1508 -28.3408
1 37 -54.7528 14.8028 -26.1159
1 55 -53.7942 16.7208 -27.5605
1 39 -50.5594 14.8927 -28.2425
1 196 -52.3359 15.2857 -26.1728
1 56 -51.3142 17.1199 -27.5839
1 198 -49.5468 15.3463 -26.0813
1 40 -48.9425 17.1384 -28.2332
1 41 -46.2888 16.6961 -28.7008
1 200 -46.9511 15.1544 -26.9571
1 234 -47.6906 17.3218 -26.2693
1 204 -41.9038 14.7469 -27.4655
1 236 -45.1543 17.156 -26.4902
1 202 -44.4346 14.9301 -27.2788
1 238 -42.6875 17.1351 -27.0659
1 203 -43.3923 15.4917 -25.1051
1 206 -39.5724 14.4333 -27.4162
1 240 -39.9863 16.7874 -26.9724
1 207 -38.2962 14.9328 -25.4357
1 205 -40.97 15.3194 -25.421
1 241 -38.8108 17.5111 -24.9685
1 242 -37.3417 16.5271 -26.9641
1 244 -35.3282 15.3375 -26.4307
1 63 -34.6875 16.863 -27.9974
1 64 -32.5638 15.8393 -27.1861
1 280 -33.7928 16.9245 -25.5199
1 318 -30.7802 16.9943 -25.5331
1 65 -30.7265 14.6744 -26.243
1 8425 -21.6347 15.1899 -26.2987
1 8426 -20.2272 16.347 -24.8437
1 57 -49.9565 19.0121 -26.8922
1 58 -47.0765 19.1308 -27.985
1 268 -48.1923 19.7953 -25.4422
1 270 -45.5219 19.5514 -26.0803
1 59 -44.5624 19.1141 -28.3645
1 272 -42.9793 19.3664 -26.0529
1 274 -40.4817 19.2743 -26.4296
1 310 -38.447 21.3941 -25.8704
1 276 -37.9481 18.9783 -26.4658
1 278 -35.5536 18.3341 -26.1938
1 312 -35.8597 20.8455 -26.0021
1 319 -30.765 19.505 -25.3111
1 8458 -21.3405 17.9355 -26.298
1 306 -43.5509 21.7898 -25.701
1 308 -41.074 21.3496 -25.6032
1 9313 -22.5706 -18.1307 -23.9736
1 730 -27.5391 -14.3819 -23.6693
1 1207 -25.7515 -16.1711 -22.7544
1 9808 -24.0583 -17.7341 -22.0184
1 9810 -20.9602 -17.1955 -22.1602
1 9314 -22.7813 -15.6218 -22.6743
1 758 -33.4301 -11.9778 -21.7026
1 760 -30.5961 -12.0728 -22.2512
1 762 -27.7188 -11.8482 -22.7041
1 9346 -24.8036 -14.1251 -23.8393
1 764 -26.6026 -12.3753 -24.8827
1 765 -24.8481 -11.5359 -23.2709
1 1240 -25.9454 -13.4905 -21.7238
1 9347 -23.1164 -13.0848 -22.3605
1 8885 -22.497 -11.6403 -24.0825
1 9348 -20.7778 -13.4755 -23.6095
1 9381 -20.7793 -10.7664 -22.5032
1 341 -56.8554 -7.65626 -22.0715
1 724 -39.6186 -8.32659 -21.6604
1 335 -36.7465 -8.45497 -22.7482
1 336 -35.2603 -10.1462 -22.075
1 367 -34.0672 -8.36116 -23.2748
1 337 -32.2931 -10.0793 -22.7743
1 369 -30.8976 -8.34324 -23.7828
1 338 -29.3689 -10.1824 -23.0762
1 371 -28.0669 -7.89914 -24.3064
1 796 -27.4963 -9.2269 -21.843
1 370 -29.2457 -7.30964 -22.1364
1 373 -25.384 -7.94211 -24.8419
1 339 -26.6043 -9.95271 -24.0801
1 798 -24.9101 -9.01632 -22.36
1 8917 -23.7816 -9.88978 -24.6527
1 8919 -21.1607 -9.71169 -25.0369
1 8918 -22.2341 -9.01174 -22.9592
1 343 -55.078 -5.93649 -22.9271
1 345 -53.3717 -4.10677 -23.6014
1 326 -52.3062 -6.20959 -22.3423
1 327 -50.5849 -4.5836 -22.971
1 740 -49.5922 -6.56368 -21.9237
1 742 -47.8131 -4.57485 -22.5043
1 721 -45.4165 -4.50336 -22.4863
1 722 -43.0403 -4.078 -22.6518
1 750 -40.3089 -4.67146 -23.7971
1 752 -38.5742 -6.8089 -23.1845
1 723 -41.2371 -6.25715 -22.3592
1 786 -38.2276 -3.9723 -22.3029
1 334 -37.6096 -4.64907 -24.3373
1 365 -35.6238 -6.4078 -23.8034
1 364 -35.1514 -4.01553 -22.9086
1 788 -36.5668 -5.68865 -21.8714
1 401 -32.8643 -6.66451 -24.4641
1 366 -33.483 -5.76318 -22.1837
1 82 -32.4046 -3.93553 -23.5454
1 403 -30.8585 -5.58831 -23.0586
1 405 -28.1477 -5.55817 -23.5264
1 83 -29.7093 -4.00209 -24.3481
1 404 -29.1882 -4.84051 -21.3806
1 372 -26.4671 -7.21072 -22.7594
1 407 -25.2008 -5.37648 -23.8758
1 406 -26.2648 -4.63538 -21.9037
1 84 -26.944 -3.68419 -24.8425
1 374 -23.743 -7.1959 -23.3784
1 408 -23.4915 -4.55023 -22.5588
1 8538 -22.3281 -5.23262 -24.5913
1 8952 -20.7579 -6.97282 -24.0177
1 8539 -20.4657 -4.40037 -23.0107
1 8950 -21.9031 -6.32215 -21.9981
1 16199 -57.853 -2.99926 -22.487
1 16231 -59.0242 -1.10163 -23.7803
1 16232 -57.7432 -0.438624 -21.7725
1 69 -56.1128 -1.77107 -23.5721
1 377 -55.154 -3.46475 -21.8967
1 379 -53.3707 -1.86408 -22.6149
1 347 -51.6704 -2.56368 -24.1097
1 348 -50.5183 -2.1644 -22.02
1 381 -51.5899 -0.313213 -23.1525
1 328 -48.9991 -2.83194 -23.964
1 330 -45.5907 -0.642582 -24.8892
1 350 -48.7673 -0.494017 -22.7575
1 744 -46.6037 -2.69485 -23.6003
1 778 -46.4363 -0.362579 -22.5814
1 746 -44.2194 -2.22749 -23.6982
1 780 -43.8936 -0.253822 -22.6136
1 747 -42.5978 -1.86803 -21.4845
1 745 -45.2984 -2.20874 -21.3594
1 748 -41.9274 -2.5571 -24.1892
1 333 -39.0521 -3.01942 -25.0774
1 784 -39.7998 -2.04111 -22.8664
1 360 -38.5232 -0.196172 -24.0362
1 749 -40.7728 -3.83528 -21.7233
1 397 -35.913 -0.6406 -24.9061
1 362 -37.0027 -2.3237 -23.5985
1 398 -35.0419 -1.23922 -22.0792
1 820 -37.687 -1.41608 -21.4826
1 399 -34.0983 -2.25145 -24.1309
1 435 -32.2109 -1.12909 -22.6916
1 400 -33.4459 -2.96059 -21.5313
1 437 -30.5324 -2.92498 -22.2506
1 115 -29.5573 -1.13978 -23.4499
1 439 -28.1077 -3.1175 -22.475
1 471 -30.4816 -0.195757 -21.4378
1 119 -24.4967 -1.03021 -24.7176
1 117 -27.0505 -1.28605 -23.7874
1 441 -25.2392 -2.85961 -23.1557
1 442 -23.3197 -1.97502 -21.6503
1 8571 -22.3267 -2.85125 -23.6952
1 8572 -20.3792 -1.85233 -22.1725
1 8606 -20.1787 -0.759237 -24.2454
1 86 -56.9642 0.366086 -24.6029
1 120 -57.0064 2.95268 -23.7198
1 16295 -58.7672 1.42637 -22.8792
1 2947 -49.5373 -10.6294 -0.355619
1 70 -54.5675 0.137122 -23.821
1 87 -56.1839 1.21833 -22.3422
1 89 -54.2411 2.81055 -23.1882
1 413 -53.2862 0.906391 -22.1129
1 71 -52.6726 1.21727 -25.0284
1 349 -49.8687 1.37384 -24.0034
1 415 -51.5879 2.56122 -22.895
1 384 -49.3193 3.46226 -23.1129
1 352 -47.2568 1.49073 -24.1124
1 810 -48.0527 1.82511 -21.6875
1 812 -45.5839 1.86964 -21.7171
1 354 -44.9829 1.48934 -23.9849
1 356 -42.4862 2.47721 -24.2103
1 814 -43.4207 1.94698 -21.6493
1 782 -41.4847 -0.0153739 -22.8619
1 358 -40.1632 1.52714 -24.571
1 816 -41.0374 2.42722 -22.0741
1 818 -39.3212 0.516186 -21.9536
1 394 -38.2425 2.29104 -23.2676
1 396 -36.7544 0.502298 -22.7108
1 431 -35.5908 2.08495 -24.2307
1 430 -36.448 3.34814 -22.0625
1 432 -34.9296 1.5345 -21.3109
1 433 -34.0117 0.394192 -23.3693
1 113 -31.1092 0.539042 -23.9492
1 469 -32.0976 1.62655 -22.072
1 467 -33.7307 3.29156 -22.5806
1 147 -31.0117 3.24834 -23.3389
1 473 -27.8548 -0.300122 -21.8071
1 150 -28.3653 0.512888 -24.6699
1 149 -29.1674 1.39038 -22.6881
1 184 -28.2396 3.25191 -24.0868
1 475 -25.0903 -0.347051 -22.4299
1 151 -26.6043 1.49547 -23.0257
1 153 -24.105 1.51829 -23.7463
1 509 -24.9232 2.44355 -21.665
1 8292 -21.4102 0.982006 -24.4734
1 8604 -22.7717 -0.651807 -23.3918
1 8637 -22.3853 2.58549 -22.4315
1 8605 -21.0124 0.477664 -21.8882
1 3537 -56.8115 -11.5966 -0.203801
1 16328 -59.7222 6.06258 -23.3612
1 16297 -58.603 4.2783 -22.1124
1 154 -56.9902 5.78703 -23.1671
1 16330 -58.5824 7.13986 -21.4357
1 124 -53.694 6.22587 -25.5329
1 122 -55.2115 4.57206 -24.5173
1 123 -54.1252 5.59927 -22.6676
1 121 -55.8943 4.09957 -21.8683
1 91 -52.4602 4.60103 -24.1077
1 449 -52.3563 7.01343 -23.3909
1 417 -49.9973 5.37092 -24.3999
1 416 -51.284 5.3936 -21.969
1 386 -46.7937 3.52825 -22.8086
1 419 -47.6121 5.44006 -24.2464
1 418 -48.8032 5.51028 -22.1392
1 420 -46.0185 5.79351 -22.0392
1 388 -44.2254 3.59787 -22.8322
1 421 -45.0499 5.61513 -24.1466
1 390 -42.2733 4.86049 -23.946
1 848 -43.5492 5.69211 -21.8874
1 392 -39.9847 3.83155 -24.0558
1 426 -39.8368 6.35368 -23.307
1 850 -41.1086 5.08014 -21.781
1 428 -38.2541 4.97716 -22.7235
1 429 -37.0713 3.90204 -24.6981
1 465 -35.3385 4.89867 -23.2997
1 463 -36.8371 6.72385 -24.23
1 464 -36.2219 6.02347 -21.4979
1 143 -34.187 6.61604 -24.6531
1 501 -33.545 6.11917 -22.0522
1 145 -32.558 5.01191 -24.0157
1 181 -30.652 6.25094 -22.6826
1 503 -31.9509 4.17247 -21.3708
1 182 -30.0175 5.06118 -24.7259
1 218 -28.3348 5.91515 -23.3348
1 183 -29.2865 4.1988 -22.0585
1 217 -29.0826 7.23985 -21.3152
1 186 -25.4796 3.15868 -24.4881
1 185 -26.7023 4.15927 -22.5959
1 187 -23.952 4.41484 -23.278
1 220 -25.4109 6.10052 -23.9164
1 8357 -22.9062 6.3625 -24.5512
1 8325 -21.4253 4.56338 -23.8972
1 8670 -23.0263 6.26286 -22.1523
1 8672 -20.6873 6.88264 -23.2787
1 18 -58.2329 7.59177 -24.5753
1 188 -56.9561 8.55922 -22.6469
1 190 -57.8084 10.4571 -23.7712
1 16363 -59.4552 8.85854 -22.8852
1 156 -55.1767 7.37001 -23.8134
1 481 -54.0436 8.29661 -21.8913
1 125 -53.2665 8.77554 -24.6017
1 157 -55.1248 9.99811 -23.2624
1 451 -49.7526 7.40693 -23.2956
1 127 -50.7203 9.25461 -24.5858
1 483 -51.8232 9.31661 -22.4055
1 485 -49.4112 9.5349 -22.4071
1 453 -47.2544 7.5752 -23.2423
1 129 -48.3329 9.34516 -24.5987
1 455 -46.0685 9.76046 -24.372
1 454 -47.0253 9.95226 -22.1331
1 424 -42.3536 7.13277 -23.2468
1 422 -44.6642 7.71709 -22.9466
1 457 -43.8849 9.31199 -24.4309
1 456 -44.6565 10.0779 -22.1468
1 458 -42.3211 9.40515 -22.7487
1 495 -38.8944 10.7927 -24.3176
1 460 -39.8354 9.15247 -22.8383
1 496 -38.2218 10.2483 -21.622
1 462 -37.9976 7.67034 -22.1094
1 497 -37.0692 9.29977 -23.6177
1 499 -35.2565 7.87827 -22.7001
1 214 -31.5175 9.69056 -24.7212
1 177 -34.2437 9.46611 -24.1249
1 179 -32.5828 7.94577 -23.3287
1 535 -33.3298 8.98287 -21.3721
1 215 -30.5188 8.99098 -22.1915
1 216 -29.6292 7.74285 -24.1687
1 252 -28.0056 9.38595 -22.9194
1 50 -26.8799 7.72805 -24.7575
1 219 -26.6345 7.54444 -22.1661
1 221 -24.3446 8.19451 -23.1966
1 254 -25.877 9.7277 -24.0626
1 8703 -23.3971 10.2787 -22.4344
1 8390 -23.5906 10.3133 -24.8813
1 8358 -21.9974 8.63713 -23.8709
1 8705 -21.0603 10.8111 -23.0519
1 52 -59.1972 12.3278 -25.0253
1 224 -57.5717 13.0468 -23.1587
1 222 -59.364 11.5408 -22.178
1 191 -56.5351 11.3012 -21.775
1 194 -53.548 13.1354 -24.9754
1 159 -52.9984 11.1726 -23.6657
1 192 -55.6999 12.1007 -24.5325
1 193 -54.6257 12.9162 -22.4508
1 163 -51.0114 13.4461 -25.0396
1 161 -50.6374 11.5525 -23.4749
1 195 -52.2475 13.4334 -22.7757
1 521 -49.5049 13.8873 -22.8207
1 165 -47.9668 13.7774 -25.2238
1 487 -48.1685 11.8345 -23.6393
1 489 -45.9233 11.973 -23.5765
1 523 -46.8728 14.3419 -22.9485
1 491 -43.6303 11.6526 -24.2082
1 525 -44.3211 13.8351 -23.3901
1 492 -42.4181 11.9442 -22.3017
1 527 -41.7779 13.7678 -23.7037
1 526 -43.0556 14.2668 -21.2794
1 493 -41.1987 11.3318 -24.4727
1 529 -39.148 13.4186 -23.9648
1 494 -40.0116 11.6965 -22.3154
1 528 -40.4872 14.1756 -21.9491
1 533 -35.3163 10.5561 -22.4296
1 209 -36.2151 13.835 -24.6747
1 531 -37.1881 12.0917 -22.963
1 567 -35.488 13.5879 -22.0412
1 211 -34.37 12.3166 -23.8058
1 248 -31.4934 12.9404 -24.5176
1 213 -32.2913 10.8666 -22.9386
1 247 -32.7479 13.8735 -22.9279
1 249 -30.7914 12.9031 -22.3186
1 67 -27.0953 11.5557 -24.7614
1 250 -29.5824 10.9479 -23.7425
1 286 -28.4714 13.1579 -23.1942
1 284 -29.9766 15.0227 -24.0018
1 253 -27.1068 11.6957 -22.2378
1 288 -26.5465 13.9102 -24.3163
1 255 -24.8634 12.0882 -23.2008
1 611 -26.4484 14.2192 -22.0126
1 8736 -23.9032 14.0413 -22.3394
1 8391 -22.5348 12.6105 -23.8043
1 8393 -20.2895 13.3908 -24.823
1 8706 -20.145 12.8842 -22.2895
1 8704 -22.4924 12.3912 -21.3559
1 292 -58.835 14.8836 -24.4724
1 53 -56.862 16.0076 -25.1331
1 258 -57.6583 15.8134 -22.6011
1 54 -54.6346 17.0613 -25.2227
1 226 -55.6164 14.6802 -23.8013
1 228 -53.3859 15.2822 -23.8592
1 260 -55.4613 16.7024 -22.6558
1 262 -53.1989 17.3413 -22.9335
1 227 -54.1044 15.1904 -21.5557
1 232 -49.6607 17.3928 -25.1166
1 230 -52.0198 17.5532 -25.3131
1 197 -51.0864 15.6712 -23.9798
1 231 -50.7012 17.7027 -22.9316
1 555 -49.2883 16.0329 -21.652
1 201 -45.9204 15.5796 -24.9486
1 199 -48.409 16.0428 -23.8769
1 235 -46.5945 17.8176 -24.1577
1 237 -44.1611 17.7479 -24.5074
1 561 -42.2243 16.061 -22.9944
1 559 -44.7728 16.1674 -22.7927
1 239 -41.3634 17.6051 -24.8579
1 563 -39.8257 15.8593 -23.3445
1 597 -40.2495 18.086 -22.4764
1 599 -37.679 17.8289 -22.7059
1 243 -36.3009 16.7003 -24.6353
1 565 -37.3178 15.0365 -22.9456
1 245 -34.6839 15.3382 -23.6335
1 601 -35.5579 16.4157 -21.6843
1 279 -34.885 18.3182 -23.4249
1 282 -32.2285 15.6881 -24.1784
1 281 -33.2459 16.7057 -22.3782
1 322 -28.21 15.7064 -25.7516
1 283 -30.4161 16.8758 -22.8295
1 285 -29.1769 14.9463 -21.6614
1 643 -28.4152 17.6725 -21.729
1 287 -27.6576 15.986 -23.319
1 8456 -26.2693 17.567 -24.7642
1 289 -25.1444 15.8368 -23.4044
1 612 -25.9241 17.2367 -21.8237
1 8424 -23.3138 16.9533 -24.6643
1 8738 -21.5187 15.0424 -23.4103
1 8737 -23.1122 16.4498 -22.0808
1 8739 -19.9994 16.5735 -22.3016
1 294 -55.8531 18.6195 -24.2365
1 293 -57.426 18.5361 -22.1989
1 264 -53.3851 19.5415 -24.5614
1 296 -54.7648 19.3048 -22.0942
1 265 -52.4801 19.7002 -21.9505
1 266 -50.817 19.7655 -24.4227
1 267 -50.2165 20.1733 -21.9365
1 300 -49.1019 21.3958 -23.4784
1 233 -48.4543 18.692 -22.9943
1 593 -45.3268 18.6211 -22.3718
1 269 -46.7303 20.4839 -23.8928
1 595 -42.9212 18.2728 -22.366
1 271 -44.124 20.1609 -23.9698
1 273 -41.8877 19.9 -24.0261
1 275 -39.4889 19.6785 -24.0698
1 633 -38.412 20.2598 -21.7947
1 631 -40.9475 20.4795 -21.7789
1 277 -36.9665 19.4718 -24.3717
1 635 -35.9265 19.9708 -21.9209
1 314 -33.5371 19.7432 -25.2103
1 316 -32.4525 18.2608 -23.8534
1 315 -33.2824 19.9254 -22.1669
1 317 -31.9258 21.1653 -23.7393
1 639 -31.5565 18.3838 -21.2329
1 320 -28.6408 17.9128 -24.5894
1 321 -28.2729 20.5757 -24.4137
1 641 -29.9747 19.5804 -22.9366
1 645 -27.0695 19.0417 -22.9124
1 8769 -24.2217 18.4525 -23.023
1 323 -25.447 20.0111 -24.4961
1 646 -25.4124 20.1083 -21.551
1 8802 -23.756 21.2571 -22.9604
1 8457 -22.687 19.7677 -24.6882
1 8771 -21.5301 18.0087 -23.272
1 8804 -21.045 20.8369 -22.989
1 8770 -22.6318 19.4383 -21.6456
1 3345 -26.2729 28.8465 -2.27734
1 304 -46.3019 21.8579 -25.6144
1 303 -47.1044 22.9985 -22.4887
1 307 -42.3966 22.373 -23.2123
1 305 -44.7698 22.7609 -23.4529
1 695 -43.3204 24.545 -22.1827
1 309 -39.7745 22.0097 -23.4561
1 699 -40.743 24.2929 -22.3378
1 701 -38.0004 23.8829 -22.625
1 311 -37.0967 21.7711 -23.3511
1 313 -34.6767 21.3746 -23.8673
1 677 -29.5362 22.4313 -22.811
1 711 -28.4105 24.9995 -22.5384
1 679 -26.5791 21.8694 -23.0902
1 713 -25.9767 24.3736 -22.5841
1 8835 -23.3657 24.0589 -22.7692
1 8837 -20.6478 23.5033 -22.9162
1 10303 -25.137 -19.6872 -20.7063
1 1683 -26.7033 -19.0086 -18.6706
1 2227 -24.6316 -20.715 -18.2146
1 10336 -23.7168 -18.6246 -19.2649
1 9792 -22.2305 -19.224 -21.5622
1 10305 -20.7625 -21.0367 -20.7812
1 10304 -22.0113 -20.5384 -18.7466
1 10338 -20.6944 -18.432 -20.0117
1 1194 -38.2762 -15.9594 -18.546
1 1198 -35.6188 -15.6762 -19.0545
1 1196 -36.4613 -17.7546 -17.769
1 1200 -32.7779 -15.911 -19.712
1 1708 -33.831 -17.8079 -18.2206
1 1201 -31.0833 -14.7505 -18.2052
1 1202 -29.8273 -15.4669 -20.3366
1 1204 -28.4643 -17.474 -19.5616
1 1206 -26.9396 -18.186 -21.7066
1 9841 -24.3072 -15.123 -21.0078
1 1205 -27.0502 -15.4078 -20.8061
1 1716 -25.4586 -17.0171 -20.0339
1 1714 -26.7003 -16.4223 -18.013
1 1717 -23.8074 -16.0943 -18.3353
1 9843 -20.8862 -14.767 -21.2054
1 9809 -22.5426 -16.6977 -20.3234
1 10371 -20.7631 -15.8791 -18.808
1 16447 -57.7073 -10.9998 -19.923
1 16446 -59.4978 -12.5614 -19.0957
1 732 -56.4734 -12.7914 -18.7023
1 734 -54.8285 -11.1979 -19.6041
1 716 -53.7132 -13.1723 -18.1461
1 717 -51.6925 -11.5724 -19.087
1 1182 -48.8894 -11.6978 -18.5795
1 1696 -45.8746 -11.5486 -17.4957
1 1700 -41.8353 -12.0532 -19.4278
1 725 -38.9086 -12.2052 -20.2357
1 1193 -39.9543 -11.2577 -18.2122
1 726 -37.3002 -13.9533 -19.8203
1 756 -36.3357 -12.2139 -21.1002
1 1230 -37.1821 -11.0275 -18.8764
1 1232 -35.5808 -13.0195 -18.2711
1 727 -34.323 -14.021 -20.2363
1 728 -31.7535 -14.0306 -21.1228
1 1234 -32.5574 -13.0661 -18.7776
1 759 -31.4459 -11.1711 -20.0604
1 1203 -28.2014 -14.772 -18.628
1 729 -28.8656 -13.7521 -21.3629
1 1236 -29.7802 -12.9541 -19.3852
1 761 -28.6602 -10.9142 -20.5975
1 1750 -25.5177 -14.4076 -18.9862
1 1238 -26.9383 -12.8291 -19.7889
1 1241 -24.2357 -12.7038 -20.3246
1 1239 -25.2274 -11.8605 -18.3167
1 9842 -22.498 -14.2531 -19.6353
1 9876 -21.2721 -12.4141 -20.7824
1 9874 -22.2818 -11.6749 -18.7086
1 16479 -58.6695 -9.01443 -21.1815
1 16480 -57.4161 -8.32193 -19.0434
1 16478 -59.2055 -9.88904 -18.306
1 325 -53.8916 -7.8102 -21.4999
1 324 -55.9139 -9.42081 -20.8424
1 736 -52.9491 -9.58944 -20.1357
1 768 -54.718 -8.37401 -18.6665
1 738 -51.2221 -8.05948 -21.0375
1 718 -50.2706 -9.9579 -19.7432
1 737 -51.8003 -8.77053 -18.2113
1 1184 -46.9269 -10.0916 -18.9594
1 719 -48.3876 -8.45363 -20.3064
1 1218 -47.272 -7.58005 -18.337
1 1186 -45.2481 -8.29657 -20.1416
1 1698 -44.2807 -10.4406 -19.3742
1 1190 -42.5359 -8.36786 -20.8059
1 1189 -43.1453 -6.96216 -18.9241
1 1191 -41.7654 -9.30144 -18.3863
1 1192 -40.655 -10.1064 -20.6879
1 1228 -38.8344 -9.27427 -19.1972
1 1226 -40.5194 -7.31458 -19.5949
1 754 -38.0409 -10.1495 -21.5441
1 755 -36.0164 -9.26999 -20.0442
1 790 -34.9861 -7.47376 -20.955
1 757 -34.3403 -11.1696 -19.7074
1 792 -33.2968 -9.29443 -20.7972
1 793 -31.677 -8.48804 -19.1541
1 791 -34.3382 -8.43704 -18.5897
1 1268 -32.6127 -10.2487 -18.0458
1 794 -30.4774 -9.28356 -21.1545
1 795 -28.6618 -8.46645 -19.6823
1 1270 -29.9007 -10.2184 -18.4991
1 763 -25.8645 -11.0131 -21.1147
1 1272 -26.9484 -10.2462 -18.973
1 1274 -24.2815 -9.95206 -19.3677
1 797 -25.8162 -8.24019 -20.2046
1 9379 -23.2532 -10.8365 -21.5976
1 9414 -20.2907 -8.12116 -21.3609
1 799 -22.9792 -8.39353 -20.6341
1 9380 -21.2466 -9.90215 -19.8941
1 1275 -22.4269 -9.15333 -17.8796
1 19069 -60.013 -3.98528 -0.691738
1 375 -56.981 -4.97675 -21.4024
1 16512 -58.6887 -6.40549 -20.2919
1 16545 -58.392 -3.57786 -19.5722
1 16513 -57.3848 -5.59893 -18.4369
1 16198 -59.5198 -4.78798 -21.7165
1 770 -52.8455 -6.91304 -19.4903
1 342 -55.795 -6.68883 -20.1021
1 376 -55.7223 -4.00699 -19.0815
1 344 -54.0587 -5.01756 -20.7191
1 804 -52.8157 -4.35951 -18.7518
1 739 -50.0052 -7.29893 -18.9432
1 772 -51.0516 -5.52459 -20.2692
1 774 -49.5454 -3.99507 -20.7699
1 773 -50.1183 -4.5696 -18.1018
1 720 -46.7684 -6.78708 -21.1614
1 741 -48.4511 -5.56498 -19.6087
1 743 -46.6459 -4.18709 -20.1713
1 1220 -45.4632 -6.12076 -19.017
1 1188 -44.0472 -6.34755 -21.3888
1 1222 -43.8592 -4.0813 -20.2573
1 1223 -42.8357 -4.26849 -17.8995
1 1221 -45.0521 -3.79029 -18.1537
1 1224 -41.8421 -5.46216 -20.1891
1 751 -39.1929 -5.66151 -20.9991
1 1260 -40.0511 -4.69223 -18.7704
1 1262 -38.5168 -6.53426 -18.4608
1 753 -37.6217 -7.40147 -20.4715
1 789 -35.7578 -6.56906 -18.891
1 787 -37.3707 -4.76397 -19.677
1 368 -31.8505 -7.44739 -21.8333
1 824 -34.5784 -4.9705 -20.2704
1 826 -32.9073 -6.69059 -19.7058
1 402 -31.725 -4.7745 -20.9217
1 827 -31.2106 -5.73686 -18.1587
1 828 -30.1654 -6.73127 -20.0362
1 829 -28.4834 -5.63305 -18.7284
1 830 -27.5436 -6.57439 -20.7808
1 862 -30.1883 -3.66007 -19.3861
1 1306 -27.023 -7.46406 -17.9699
1 832 -24.6602 -6.35457 -21.2715
1 1308 -24.1782 -7.34616 -18.521
1 831 -25.6898 -5.68649 -19.1718
1 9412 -21.3879 -7.31649 -19.044
1 833 -22.6918 -5.59396 -19.745
1 9445 -21.1945 -4.3679 -18.2869
1 8951 -20.164 -5.47838 -20.3577
1 16230 -59.5475 -1.93219 -21.1116
1 409 -56.536 -2.23041 -20.5006
1 16578 -58.285 -1.01382 -18.9858
1 411 -54.9628 -0.549897 -21.1965
1 378 -54.0019 -2.5113 -19.7925
1 410 -55.4396 -1.28428 -18.653
1 346 -52.1811 -3.59892 -21.3138
1 380 -52.1605 -0.733938 -20.6629
1 806 -51.0729 -2.70039 -19.2995
1 808 -49.5478 -1.05572 -20.2217
1 776 -47.6521 -2.31666 -21.4562
1 775 -48.2834 -2.84136 -18.8689
1 777 -47.2746 -0.245564 -20.2557
1 1254 -45.9168 -1.97813 -19.1073
1 1286 -48.0935 -0.323354 -18.1596
1 1256 -43.527 -1.80634 -19.1585
1 1258 -41.4974 -2.91859 -19.3413
1 783 -40.3271 -1.17764 -20.6501
1 785 -38.9208 -3.07949 -20.1232
1 819 -38.6465 -0.281107 -19.1857
1 1292 -41.1518 -0.270693 -18.4378
1 1294 -39.6955 -2.06785 -17.7936
1 822 -36.0428 -3.17986 -20.9174
1 821 -36.9242 -2.00014 -18.7876
1 856 -35.8786 -0.161978 -20.119
1 823 -35.6248 -3.77792 -17.9755
1 860 -32.7862 -3.82308 -18.7987
1 858 -34.3171 -1.92071 -19.3007
1 436 -31.6014 -1.99932 -20.1441
1 894 -32.6389 -1.05406 -17.9044
1 434 -33.3334 -0.136339 -20.6164
1 864 -27.506 -3.86162 -19.9635
1 438 -29.0624 -1.91401 -20.577
1 896 -29.9741 -1.11838 -18.4603
1 863 -28.5379 -2.87671 -17.8909
1 898 -27.3613 -1.17111 -19.1197
1 440 -26.2283 -2.12246 -21.0838
1 866 -24.552 -3.76837 -20.5056
1 900 -24.5609 -0.923135 -19.7611
1 865 -25.4981 -2.84357 -18.262
1 8983 -21.6191 -3.63881 -21.048
1 867 -22.7091 -2.77395 -18.9244
1 9016 -21.777 -0.90134 -20.2264
1 16809 -59.6099 19.3134 -17.5012
1 16265 -57.6224 2.26425 -20.8384
1 16611 -58.1958 1.73712 -18.1846
1 16263 -59.5337 0.851661 -20.2466
1 443 -56.5743 0.490823 -19.6392
1 16296 -59.2517 3.44984 -19.4894
1 477 -56.3802 3.42648 -19.0673
1 445 -54.6842 2.15655 -20.5175
1 412 -53.7523 0.392038 -19.2238
1 446 -53.5188 3.21809 -18.5223
1 840 -50.8333 0.356068 -18.5621
1 382 -50.3391 0.900069 -21.5377
1 414 -52.0409 2.0018 -20.1559
1 842 -50.2032 3.42989 -20.7549
1 809 -49.0581 1.68596 -19.5616
1 841 -50.6636 3.20638 -18.145
1 1288 -45.7932 0.00899942 -18.0219
1 811 -46.6623 1.9504 -19.1704
1 843 -48.5338 3.73792 -18.3305
1 779 -44.7978 0.103523 -20.2137
1 781 -42.2976 0.489207 -20.4541
1 813 -44.1768 2.09009 -19.3349
1 1290 -43.5884 0.230251 -17.8583
1 852 -39.1036 3.23109 -21.1927
1 817 -40.2401 1.59917 -19.8298
1 853 -38.296 2.60018 -18.6424
1 1326 -41.8951 2.25926 -17.9097
1 854 -37.5034 1.61947 -20.5779
1 890 -35.733 2.49632 -19.2014
1 855 -36.7808 0.791074 -17.9662
1 892 -34.1614 0.758173 -18.6559
1 470 -31.4827 0.755189 -19.2811
1 468 -33.0242 2.44248 -19.9843
1 507 -27.7046 2.56055 -21.1395
1 505 -30.2904 2.39518 -20.5602
1 472 -28.6867 0.697059 -19.9274
1 930 -29.8102 1.49668 -17.9233
1 506 -28.573 3.57118 -19.0954
1 932 -26.9089 1.7232 -18.4908
1 474 -26.1527 0.60667 -20.3706
1 934 -24.5735 1.85031 -19.0683
1 476 -23.4474 0.759573 -21.2045
1 9049 -22.1865 2.2371 -19.7988
1 901 -22.8343 0.194348 -18.2719
1 9017 -20.3961 0.566328 -18.7247
1 9051 -20.0765 2.29738 -20.8513
1 16677 -58.9762 6.36574 -18.8063
1 16298 -57.4074 5.13413 -20.3167
1 447 -53.1974 3.80193 -21.3729
1 511 -56.4037 6.07468 -18.3743
1 155 -55.8701 6.82118 -21.1988
1 479 -54.7383 4.99495 -19.7873
1 448 -53.024 6.5468 -20.6352
1 874 -52.0444 4.82232 -19.2349
1 876 -49.7105 5.58066 -19.5916
1 844 -47.5625 3.95111 -20.6763
1 878 -47.0505 5.92214 -19.6726
1 845 -45.8668 4.0335 -18.147
1 815 -42.5115 3.52385 -20.3616
1 846 -45.0379 4.04446 -20.4949
1 849 -42.093 5.84339 -19.6542
1 847 -44.5341 6.28935 -19.4003
1 1324 -43.5169 4.45131 -17.9715
1 886 -39.17 5.90891 -20.5429
1 851 -40.273 4.00565 -19.1088
1 885 -40.095 6.82411 -18.4986
1 887 -38.3443 5.23877 -17.8553
1 888 -37.4007 4.47242 -19.9882
1 924 -35.6343 5.17698 -18.767
1 922 -37.2568 7.16437 -19.2643
1 466 -34.6358 4.26107 -20.605
1 504 -31.1835 3.47919 -18.6207
1 502 -32.8343 5.40324 -19.459
1 538 -31.4649 6.81271 -18.1944
1 926 -33.7362 3.55325 -17.983
1 539 -30.0748 5.25572 -20.0432
1 541 -27.6559 5.30815 -20.6471
1 540 -29.1062 7.17201 -18.9954
1 966 -27.6012 5.47582 -17.9987
1 543 -25.293 5.88363 -21.4912
1 508 -26.0941 3.71542 -19.9033
1 968 -25.2315 5.93381 -18.8571
1 510 -23.641 3.91113 -20.4462
1 8638 -21.5203 4.45792 -21.5691
1 935 -23.7594 3.95602 -18.0564
1 9082 -23.1434 6.43787 -19.894
1 9050 -21.6804 4.45432 -19.0303
1 9084 -20.7719 6.72464 -20.6521
1 9546 -20.9982 6.63498 -18.2883
1 189 -58.3861 9.76098 -20.8716
1 16331 -57.2512 8.03054 -19.5408
1 545 -58.9337 9.21903 -18.1664
1 18045 -60.138 2.03332 -6.68753
1 513 -55.5524 9.55963 -20.4377
1 480 -54.589 7.89739 -19.1681
1 482 -52.7498 9.21814 -20.1102
1 516 -54.2304 10.5131 -18.4558
1 450 -50.6937 7.3318 -21.1297
1 908 -51.6402 7.3718 -18.8426
1 484 -50.333 9.64466 -20.1283
1 910 -49.2949 7.76253 -18.783
1 452 -48.3339 7.72089 -20.9449
1 880 -45.8913 8.00455 -20.6823
1 912 -46.8056 7.93729 -18.3789
1 486 -47.8789 9.9491 -19.8379
1 914 -45.6313 10.2573 -20.0377
1 882 -43.2963 7.97059 -20.8719
1 916 -43.2474 10.6596 -20.0417
1 883 -42.0264 8.18893 -18.9686
1 881 -44.4491 8.60323 -18.611
1 1392 -41.8069 10.5869 -18.296
1 884 -41.131 7.47816 -21.2279
1 918 -41.0977 10.1537 -20.8092
1 920 -39.1869 8.53213 -20.2481
1 919 -39.6707 9.39484 -18.2257
1 500 -34.5899 7.15829 -19.8449
1 498 -36.0376 8.89464 -20.714
1 956 -37.3561 9.71322 -18.8692
1 958 -35.2334 8.35083 -18.0751
1 537 -31.7271 7.1549 -20.7604
1 534 -34.2862 10.3817 -19.5091
1 536 -32.8353 8.68706 -18.6198
1 571 -31.9753 10.9019 -20.548
1 573 -30.4402 8.97926 -19.6502
1 575 -28.0966 9.37375 -20.5128
1 1000 -28.1429 9.28523 -18.1513
1 577 -25.859 9.88517 -21.2925
1 542 -26.7213 7.48277 -19.6626
1 544 -24.423 8.11472 -20.7209
1 1002 -25.7762 9.85217 -18.9995