ITEM: TIMESTEP
20049
ITEM: NUMBER OF ATOMS
125134
ITEM: BOX BOUNDS pp pp pp
-5.7093955961830822e+01 5.7093955961830822e+01
-5.7090130370356142e+01 5.7090130370356142e+01
-5.7097217950393620e+01 5.7097217950393620e+01
ITEM: ATOMS id type x y z
2 1 -55.7368 -55.5731 -55.72
1643 1 -54.4961 -54.2605 -54.2453
1603 1 -54.3571 -56.9804 -54.2861
4 1 -52.9452 -55.5382 -55.8049
1645 1 -51.4297 -54.1974 -54.1992
6 1 -49.9736 -55.5886 -55.655
8 1 -47.0991 -55.5779 -55.7753
1647 1 -48.6481 -54.2347 -54.1722
1607 1 -48.576 -57.0147 -54.3261
10 1 -44.3627 -55.6732 -55.5341
1649 1 -45.7124 -54.2835 -54.0779
1609 1 -45.7533 -57.0381 -54.1838
9 1 -45.7303 -57.2089 -57.1664
49 1 -45.5968 -54.2644 -56.9704
11 1 -42.9365 -56.9889 -56.9828
51 1 -42.8238 -54.2301 -56.9635
1651 1 -42.8617 -54.1753 -54.1208
12 1 -41.356 -55.6343 -55.5122
1653 1 -39.8185 -54.1931 -54.2139
1613 1 -39.839 -57.0341 -54.1131
13 1 -39.8217 -57.0915 -56.9883
53 1 -40.0949 -54.2639 -57.095
14 1 -38.4915 -55.6195 -55.6573
1655 1 -37.0803 -54.2542 -54.2485
55 1 -37.0839 -54.1557 -57.1665
16 1 -35.6468 -55.5392 -55.6416
18 1 -32.7416 -55.641 -55.5436
1657 1 -34.2415 -54.1185 -54.293
1617 1 -34.2421 -57.0421 -54.1641
57 1 -34.0849 -54.1159 -57.011
20 1 -30.0311 -55.6314 -55.737
1659 1 -31.3872 -54.1675 -54.2256
1621 1 -28.504 -57.0958 -54.3058
1661 1 -28.5677 -54.1818 -54.2198
61 1 -28.6713 -54.2013 -57.0535
19 1 -31.4038 -57.0706 -57.118
59 1 -31.3741 -54.2114 -57.0341
22 1 -27.1113 -55.5965 -55.7183
1663 1 -25.6436 -54.1797 -54.1431
1623 1 -25.8718 -57.0497 -54.2301
23 1 -25.6269 -56.9822 -57.0888
24 1 -24.2834 -55.5811 -55.6111
1665 1 -22.8467 -54.213 -54.274
1625 1 -22.9459 -57.0529 -54.3188
25 1 -22.9384 -56.9954 -56.9875
65 1 -22.921 -54.1589 -57.0828
26 1 -21.3224 -55.5602 -55.7016
28 1 -18.5557 -55.5236 -55.6866
1667 1 -19.9972 -54.2717 -54.218
27 1 -19.8613 -56.9727 -57.0954
30 1 -15.6797 -55.5804 -55.6697
1669 1 -17.0678 -54.1275 -54.3669
1629 1 -17.0067 -56.9415 -54.2725
1631 1 -14.4365 -56.8976 -54.024
1671 1 -14.2256 -54.1441 -54.2638
32 1 -12.8621 -55.4853 -55.5982
1673 1 -11.3351 -54.2406 -54.2823
1633 1 -11.5209 -57.1029 -54.2336
33 1 -11.511 -57.0635 -56.9221
71 1 -14.0986 -54.1954 -57.1204
34 1 -9.97093 -55.6355 -55.5604
1675 1 -8.52429 -54.1298 -54.2122
1635 1 -8.65083 -56.9347 -54.2585
36 1 -7.13783 -55.6306 -55.6201
75 1 -8.57299 -54.264 -57.1283
38 1 -4.38915 -55.5665 -55.6735
1677 1 -5.80104 -54.0854 -54.183
1637 1 -5.66291 -57.046 -54.3068
77 1 -5.70958 -54.2419 -57.1194
40 1 -1.44836 -55.6389 -55.6285
1679 1 -3.02715 -54.1301 -54.2434
64276 1 -0.0101991 -54.2687 -54.1661
1639 1 -2.81595 -57.0415 -54.3312
62676 1 -0.11327 -54.2075 -57.0305
42 1 -55.8608 -52.8498 -55.664
1683 1 -54.3537 -51.4701 -54.272
82 1 -55.7005 -49.9374 -55.6235
83 1 -54.3271 -51.3524 -57.0305
44 1 -52.9377 -52.8287 -55.6789
1685 1 -51.6031 -51.3418 -54.2853
84 1 -52.9879 -49.9847 -55.6029
86 1 -50.2065 -49.8513 -55.7235
85 1 -51.4791 -51.343 -57.0819
46 1 -49.9949 -52.8171 -55.7536
48 1 -47.104 -52.867 -55.6329
1687 1 -48.5601 -51.3866 -54.33
87 1 -48.5056 -51.2555 -57.0735
91 1 -42.9222 -51.4057 -57.0736
50 1 -44.2709 -52.7023 -55.5903
1689 1 -45.7911 -51.181 -54.2829
1691 1 -42.8538 -51.3525 -54.2999
52 1 -41.4047 -52.7161 -55.648
1693 1 -39.847 -51.3607 -54.2598
93 1 -40.0472 -51.4289 -57.0851
54 1 -38.5126 -52.878 -55.6728
1695 1 -37.0346 -51.396 -54.2146
94 1 -38.4932 -49.9515 -55.632
96 1 -35.6483 -49.9799 -55.6384
95 1 -37.1347 -51.4868 -57.0453
56 1 -35.7205 -52.8107 -55.5247
58 1 -32.8183 -52.7942 -55.7952
1697 1 -34.1974 -51.323 -54.2137
60 1 -29.9751 -52.7685 -55.6655
1699 1 -31.5052 -51.2871 -54.3415
100 1 -29.8973 -49.976 -55.6105
1701 1 -28.5225 -51.3423 -54.3172
62 1 -27.1055 -52.7565 -55.6245
1703 1 -25.7423 -51.3331 -54.2429
103 1 -25.7301 -51.2463 -57.0234
64 1 -24.2298 -52.7945 -55.7125
1705 1 -22.889 -51.4581 -54.2149
66 1 -21.3864 -52.7567 -55.617
104 1 -24.3707 -49.9662 -55.5665
68 1 -18.4887 -52.735 -55.7005
1707 1 -19.957 -51.3421 -54.2203
108 1 -18.5588 -49.9603 -55.6681
70 1 -15.6279 -52.7693 -55.7878
1709 1 -17.0191 -51.296 -54.2156
1711 1 -14.1443 -51.312 -54.1156
72 1 -12.7808 -52.7729 -55.6274
1713 1 -11.348 -51.3356 -54.2069
111 1 -14.1235 -51.3191 -57.0796
74 1 -10.0029 -52.6988 -55.683
1715 1 -8.58909 -51.3912 -54.3068
76 1 -7.15393 -52.7704 -55.6986
78 1 -4.20955 -52.7725 -55.6584
1717 1 -5.72507 -51.3134 -54.128
116 1 -7.02252 -49.9854 -55.715
118 1 -4.28519 -49.9903 -55.6287
80 1 -1.47778 -52.7606 -55.494
1719 1 -2.84706 -51.2986 -54.1352
119 1 -2.86419 -51.357 -57.066
62716 1 -0.158826 -51.355 -57.0042
122 1 -55.7024 -47.1219 -55.5908
1723 1 -54.3042 -48.4386 -54.1631
123 1 -54.3304 -48.4589 -57.048
1721 1 -57.1561 -48.5028 -54.1785
124 1 -52.9142 -47.0681 -55.6319
1725 1 -51.4989 -48.481 -54.3149
126 1 -50.0742 -47.0008 -55.7302
88 1 -47.1331 -49.857 -55.6447
128 1 -47.1003 -47.1327 -55.6527
1727 1 -48.6566 -48.4079 -54.2847
127 1 -48.6233 -48.516 -56.8824
90 1 -44.2453 -49.8473 -55.6481
130 1 -44.1853 -47.1023 -55.5621
1729 1 -45.6115 -48.5001 -54.1914
1731 1 -42.7726 -48.4378 -54.2325
92 1 -41.4606 -49.939 -55.7107
132 1 -41.5047 -47.0228 -55.6566
1733 1 -40.0629 -48.4917 -54.2742
133 1 -39.8855 -48.6201 -57.0468
134 1 -38.6622 -47.0571 -55.6045
1735 1 -37.147 -48.5953 -54.2828
135 1 -37.1176 -48.5508 -57.0346
98 1 -32.8236 -49.8777 -55.6942
136 1 -35.7667 -47.2546 -55.5807
138 1 -32.8787 -47.1257 -55.6204
1737 1 -34.0974 -48.4616 -54.1216
140 1 -29.9414 -47.0443 -55.6912
1739 1 -31.4648 -48.4574 -54.224
102 1 -27.1446 -49.8077 -55.6155
1741 1 -28.5482 -48.4979 -54.1799
142 1 -27.034 -46.9654 -55.5653
1743 1 -25.7499 -48.5599 -54.128
143 1 -25.6406 -48.5666 -57.1068
144 1 -24.3154 -47.1837 -55.5965
1745 1 -22.8516 -48.5441 -54.0897
106 1 -21.3479 -50.055 -55.6095
145 1 -22.8021 -48.6284 -56.9115
146 1 -21.4846 -47.217 -55.6799
148 1 -18.4338 -47.2826 -55.7281
1747 1 -19.9225 -48.5848 -54.2237
147 1 -19.9688 -48.6597 -57.0697
110 1 -15.6113 -50.0714 -55.7581
150 1 -15.7399 -47.0775 -55.7352
1749 1 -17.1173 -48.6602 -54.2763
1751 1 -14.1623 -48.4011 -54.2962
112 1 -12.8094 -49.9078 -55.6311
152 1 -12.8572 -47.0145 -55.6534
1753 1 -11.4266 -48.4685 -54.3718
114 1 -10.0469 -49.8763 -55.6765
154 1 -9.99271 -47.0788 -55.71
1755 1 -8.57205 -48.4803 -54.271
156 1 -7.09579 -47.0569 -55.6537
158 1 -4.19779 -47.0001 -55.6058
1757 1 -5.56537 -48.469 -54.1823
157 1 -5.5443 -48.5105 -57.0304
120 1 -1.33857 -49.9289 -55.5858
160 1 -1.38205 -47.0253 -55.5921
1759 1 -2.83585 -48.5772 -54.1259
62756 1 0.0292422 -48.4443 -57.0113
159 1 -2.73545 -48.4573 -56.8448
162 1 -55.7947 -44.1439 -55.6002
1763 1 -54.3143 -45.5979 -54.2445
163 1 -54.3181 -45.6456 -57.045
203 1 -54.1911 -42.8363 -57.0901
161 1 -57.1062 -45.6529 -57.0603
164 1 -52.783 -44.2525 -55.7857
1765 1 -51.3369 -45.6045 -54.2706
166 1 -49.8564 -44.1614 -55.6723
205 1 -51.2749 -42.7477 -57.0701
168 1 -47.1648 -44.3108 -55.6055
1767 1 -48.5366 -45.677 -54.1919
167 1 -48.5327 -45.6287 -57.031
207 1 -48.4629 -42.8339 -57.0759
170 1 -44.3025 -44.2226 -55.6532
1769 1 -45.7169 -45.607 -54.146
1811 1 -42.8572 -42.8033 -54.306
171 1 -42.8869 -45.6893 -57.0892
211 1 -42.8438 -42.9112 -57.0842
169 1 -45.5867 -45.656 -57.0081
1771 1 -42.8992 -45.6073 -54.1535
172 1 -41.4414 -44.3141 -55.6599
1773 1 -39.9936 -45.6802 -54.2379
1813 1 -40.0789 -42.8746 -54.2579
213 1 -39.9909 -42.946 -57.1673
173 1 -40.0132 -45.6889 -57.1939
174 1 -38.6328 -44.343 -55.6471
1775 1 -37.11 -45.7569 -54.2255
176 1 -35.735 -44.2264 -55.6279
215 1 -37.1743 -42.861 -57.0211
175 1 -37.142 -45.7245 -57.0144
178 1 -32.8252 -44.2085 -55.7395
1777 1 -34.2724 -45.6488 -54.2479
177 1 -34.3287 -45.6938 -57.0882
180 1 -29.8159 -44.1662 -55.6988
1779 1 -31.4083 -45.6306 -54.2322
1819 1 -31.247 -42.8297 -54.3828
1781 1 -28.5435 -45.6323 -54.2315
179 1 -31.3445 -45.7579 -56.9815
182 1 -27.1332 -44.1891 -55.7815
1783 1 -25.5858 -45.5569 -54.1752
183 1 -25.5941 -45.6525 -57.0184
184 1 -24.3563 -44.1008 -55.7378
1785 1 -22.9348 -45.701 -54.338
186 1 -21.392 -44.2388 -55.6965
185 1 -22.9069 -45.6709 -57.0212
188 1 -18.5729 -44.243 -55.6552
1787 1 -19.8877 -45.796 -54.4645
187 1 -20.0253 -45.7101 -57.2343
190 1 -15.6919 -44.2831 -55.6701
1789 1 -17.1751 -45.8362 -54.2587
1791 1 -14.3327 -45.7049 -54.1768
192 1 -12.7199 -44.3183 -55.7376
1793 1 -11.445 -45.7179 -54.3126
193 1 -11.3811 -45.7376 -57.0062
194 1 -10.0019 -44.3047 -55.6676
1795 1 -8.60829 -45.6695 -54.2388
195 1 -8.55952 -45.5156 -56.9884
197 1 -5.67813 -45.5599 -57.0687
196 1 -7.04127 -44.0869 -55.5649
198 1 -4.22737 -44.234 -55.604
1797 1 -5.65493 -45.6806 -54.225
1837 1 -5.64841 -42.8163 -54.2024
200 1 -1.48699 -44.2309 -55.6266
1799 1 -2.78885 -45.6143 -54.1797
1839 1 -2.82219 -42.8663 -54.2087
199 1 -2.82422 -45.6164 -57.0425
1803 1 -54.311 -42.9165 -54.2153
202 1 -55.7536 -41.405 -55.6807
1843 1 -54.2322 -40.0075 -54.2509
1841 1 -57.0915 -39.8577 -54.1984
1801 1 -57.1415 -42.7458 -54.2224
241 1 -56.991 -39.8917 -57.0123
243 1 -54.332 -39.8429 -57.0304
1805 1 -51.3876 -42.8435 -54.1532
204 1 -52.7438 -41.3915 -55.6239
1845 1 -51.4115 -39.9744 -54.2002
206 1 -49.9688 -41.3226 -55.5923
1807 1 -48.5406 -42.713 -54.2211
208 1 -46.9391 -41.3665 -55.6526
1847 1 -48.5336 -40.0339 -54.2342
247 1 -48.5076 -40.0264 -57.1405
1809 1 -45.6866 -42.7569 -54.2272
210 1 -44.2006 -41.4314 -55.6985
1849 1 -45.6077 -39.9277 -54.2167
1851 1 -42.9597 -39.9594 -54.1805
212 1 -41.4963 -41.3822 -55.6387
1853 1 -40.0411 -39.9515 -54.2719
253 1 -40.0155 -39.9765 -56.9888
1815 1 -37.0812 -42.7733 -54.2023
214 1 -38.5701 -41.476 -55.6286
1855 1 -37.0823 -39.9533 -54.2999
255 1 -37.1103 -39.9927 -57.0321
1817 1 -34.1939 -42.7587 -54.1588
216 1 -35.6342 -41.4486 -55.5743
218 1 -32.6761 -41.3903 -55.635
1857 1 -34.2544 -40.0362 -54.2539
217 1 -34.2498 -42.7229 -57.0056
257 1 -34.214 -40.0643 -57.0476
220 1 -29.9745 -41.4028 -55.6841
1859 1 -31.2142 -39.9959 -54.2494
1821 1 -28.4493 -42.6955 -54.1565
1823 1 -25.7535 -42.8604 -54.2759
1861 1 -28.5022 -39.8477 -54.2687
222 1 -27.1227 -41.3523 -55.6602
1863 1 -25.652 -39.8911 -54.2656
1825 1 -22.8001 -42.7904 -54.2318
224 1 -24.3338 -41.4265 -55.8055
1865 1 -22.8398 -40.0629 -54.1984
226 1 -21.4362 -41.4081 -55.6652
1827 1 -20.0493 -42.8465 -54.3407
228 1 -18.5627 -41.3849 -55.7417
1867 1 -19.9254 -39.9651 -54.2545
227 1 -19.9591 -42.8684 -57.1098
1829 1 -17.0945 -42.8541 -54.1879
230 1 -15.6774 -41.4677 -55.7459
1869 1 -17.1193 -40.0495 -54.2358
1871 1 -14.3194 -39.9219 -54.3405
1831 1 -14.2495 -42.7767 -54.2292
269 1 -17.154 -40.0264 -57.1386
229 1 -17.1783 -42.7144 -57.0652
1833 1 -11.43 -42.8064 -54.3176
232 1 -12.8973 -41.4546 -55.709
1873 1 -11.3933 -39.8922 -54.2447
273 1 -11.4011 -39.7926 -56.9806
233 1 -11.3549 -42.77 -57.1024
271 1 -14.1832 -39.9809 -57.046
1835 1 -8.56198 -42.794 -54.2632
234 1 -10.055 -41.4522 -55.6558
1875 1 -8.58472 -39.9535 -54.2532
275 1 -8.59434 -39.881 -57.1447
235 1 -8.48309 -42.7673 -57.0397
277 1 -5.76665 -39.8901 -56.9966
236 1 -7.10348 -41.4428 -55.6011
238 1 -4.19843 -41.3681 -55.6833
1877 1 -5.65042 -39.9452 -54.1837
237 1 -5.57176 -42.7474 -56.991
240 1 -1.41436 -41.5479 -55.6761
1879 1 -2.80404 -40.0059 -54.2738
239 1 -2.76211 -42.7833 -57.0912
279 1 -2.84219 -39.9331 -57.0914
64476 1 -0.050811 -39.9698 -54.2089
242 1 -55.5421 -38.47 -55.6378
1883 1 -54.3283 -37.0312 -54.1615
281 1 -57.0128 -36.9994 -57.0824
283 1 -54.219 -36.9964 -57.0713
244 1 -52.6932 -38.4598 -55.6383
1885 1 -51.4152 -37.0945 -54.2201
285 1 -51.3215 -37.0207 -57.0555
246 1 -50.0674 -38.5065 -55.6068
248 1 -47.0422 -38.4903 -55.6214
1887 1 -48.588 -37.0743 -54.1753
287 1 -48.4787 -37.0233 -57.0863
250 1 -44.2706 -38.5937 -55.6818
1889 1 -45.6206 -37 -54.1549
1891 1 -42.9807 -37.1755 -54.2275
290 1 -44.2577 -35.6557 -55.6886
252 1 -41.5277 -38.5265 -55.6103
1893 1 -40.1064 -37.0211 -54.1727
254 1 -38.5447 -38.4186 -55.7077
1895 1 -37.13 -37.1076 -54.2258
294 1 -38.4694 -35.7718 -55.588
256 1 -35.6118 -38.6035 -55.7097
258 1 -32.718 -38.6275 -55.655
1897 1 -34.2502 -37.2248 -54.2775
298 1 -32.7567 -35.7134 -55.6302
297 1 -34.2668 -37.2048 -57.0944
260 1 -30.005 -38.4315 -55.6866
1899 1 -31.3552 -37.057 -54.2502
1901 1 -28.3944 -37.0293 -54.3102
262 1 -27.0961 -38.5596 -55.7435
1903 1 -25.6787 -37.0717 -54.2714
302 1 -26.9715 -35.5954 -55.7051
264 1 -24.2292 -38.5475 -55.7713
1905 1 -22.8015 -37.0106 -54.2639
266 1 -21.3872 -38.5224 -55.7089
306 1 -21.4838 -35.6432 -55.712
268 1 -18.5916 -38.6345 -55.7545
1907 1 -19.9237 -37.201 -54.3262
308 1 -18.4617 -35.7834 -55.7144
307 1 -19.9923 -37.0928 -57.0923
270 1 -15.6898 -38.598 -55.6673
1909 1 -17.1476 -37.2047 -54.2756
1911 1 -14.1973 -37.0949 -54.1358
272 1 -12.9028 -38.501 -55.5932
1913 1 -11.4443 -37.0643 -54.1966
312 1 -12.8702 -35.7396 -55.6801
274 1 -9.94174 -38.3178 -55.6145
1915 1 -8.51253 -36.999 -54.3139
276 1 -7.20697 -38.5818 -55.5917
315 1 -8.56932 -37.0469 -57.1069
278 1 -4.26859 -38.5516 -55.5215
1917 1 -5.77253 -37.1496 -54.2131
318 1 -4.31126 -35.7401 -55.6602
317 1 -5.83629 -37.1547 -57.0884
280 1 -1.36609 -38.5275 -55.5793
1919 1 -2.83552 -37.0657 -54.2841
320 1 -1.43368 -35.5592 -55.4046
62916 1 -0.00933984 -37.0785 -57.0313
319 1 -2.79411 -37.2416 -57.0224
282 1 -55.793 -35.5546 -55.6451
322 1 -55.604 -32.6511 -55.741
1923 1 -54.3921 -34.1296 -54.2583
1921 1 -57.1069 -34.1416 -54.2566
284 1 -52.904 -35.6446 -55.5168
324 1 -52.7935 -32.7573 -55.6746
1925 1 -51.4334 -34.2627 -54.1132
326 1 -50.0601 -32.8051 -55.7211
286 1 -49.9046 -35.5922 -55.6019
288 1 -47.177 -35.6753 -55.5987
328 1 -47.2122 -32.6489 -55.5965
1927 1 -48.6426 -34.2161 -54.1877
327 1 -48.5476 -34.2089 -57.1018
330 1 -44.2252 -32.7061 -55.6786
1929 1 -45.7329 -34.2391 -54.3013
1931 1 -42.9745 -34.344 -54.2256
331 1 -42.9351 -34.2061 -57.1312
329 1 -45.7175 -34.2196 -57.0971
292 1 -41.5153 -35.7499 -55.6667
332 1 -41.344 -32.8762 -55.7132
1933 1 -40.0472 -34.3161 -54.121
333 1 -40.0259 -34.3776 -57.1325
296 1 -35.6165 -35.5915 -55.7676
334 1 -38.6015 -32.9825 -55.6281
1935 1 -37.0914 -34.2782 -54.1759
336 1 -35.7163 -32.9351 -55.7096
338 1 -32.7082 -32.9561 -55.7306
1937 1 -34.1856 -34.304 -54.2938
300 1 -29.9423 -35.6801 -55.6214
340 1 -30.1134 -32.9299 -55.6555
1939 1 -31.4464 -34.3856 -54.0502
339 1 -31.4531 -34.4621 -57.17
1941 1 -28.4774 -34.2282 -54.1814
342 1 -27.1412 -32.8091 -55.5344
1943 1 -25.6341 -34.2473 -54.3156
341 1 -28.5428 -34.2228 -57.0028
304 1 -24.2487 -35.6125 -55.7546
344 1 -24.2759 -32.8281 -55.6699
1945 1 -22.7367 -34.2842 -54.2724
346 1 -21.3421 -32.8509 -55.6714
348 1 -18.4637 -32.8687 -55.5343
1947 1 -19.7932 -34.3259 -54.2569
347 1 -19.9106 -34.2269 -57.0909
310 1 -15.6093 -35.7157 -55.6414
350 1 -15.6633 -32.8869 -55.5766
1949 1 -17.0715 -34.3362 -54.2336
349 1 -17.0422 -34.2115 -57.0355
1951 1 -14.2013 -34.2594 -54.065
352 1 -12.8167 -32.8625 -55.6497
1953 1 -11.5265 -34.1025 -54.1573
353 1 -11.4802 -34.39 -56.9956
314 1 -10.0008 -35.5996 -55.5548
354 1 -10.0776 -32.7511 -55.7043
1955 1 -8.59935 -34.1948 -54.2209
356 1 -7.18371 -32.7967 -55.6179
316 1 -7.17751 -35.6246 -55.6214
358 1 -4.25663 -32.8513 -55.7636
1957 1 -5.70754 -34.2263 -54.3221
360 1 -1.46327 -32.8432 -55.6656
1959 1 -2.93863 -34.2702 -54.1752
359 1 -2.82588 -34.3137 -57.0891
62956 1 0.00702084 -34.3421 -57.0477
362 1 -55.7001 -30.0383 -55.751
1963 1 -54.3287 -31.4128 -54.1761
403 1 -54.2659 -28.5746 -56.9755
364 1 -52.9185 -29.9118 -55.5095
1965 1 -51.4102 -31.4032 -54.162
2005 1 -51.4551 -28.6356 -54.0253
366 1 -50.0416 -29.9798 -55.5902
368 1 -47.244 -30.0195 -55.7539
1967 1 -48.5656 -31.3563 -54.1495
2007 1 -48.5457 -28.6409 -54.231
370 1 -44.263 -30.0228 -55.8475
1969 1 -45.7406 -31.3606 -54.2246
2009 1 -45.7971 -28.6067 -54.3735
371 1 -42.6968 -31.4482 -57.1321
2011 1 -42.6924 -28.5879 -54.4429
1971 1 -42.7953 -31.3873 -54.3169
372 1 -41.1824 -30.0084 -55.8372
1973 1 -40.0813 -31.4753 -54.1803
2013 1 -39.8853 -28.5514 -54.3179
374 1 -38.7534 -30.2036 -55.7769
1975 1 -37.1763 -31.5414 -54.2797
376 1 -35.7281 -30.0804 -55.5906
2015 1 -37.2715 -28.6171 -54.3477
375 1 -37.1792 -31.456 -56.9992
415 1 -37.0827 -28.5566 -57.0237
378 1 -32.7655 -29.9296 -55.6211
1977 1 -34.2613 -31.3852 -54.2033
377 1 -34.2339 -31.4806 -56.977
380 1 -30.0552 -30.0104 -55.5956
1979 1 -31.4661 -31.3865 -53.9919
2019 1 -31.4805 -28.5005 -54.2649
2021 1 -28.4799 -28.5131 -54.2742
379 1 -31.3312 -31.3681 -57.0403
381 1 -28.5861 -31.3855 -57.0724
419 1 -31.4189 -28.4927 -57.1034
383 1 -25.7449 -31.4786 -57.0715
1981 1 -28.4793 -31.3099 -54.1336
382 1 -27.1185 -29.9595 -55.6317
1983 1 -25.7043 -31.3433 -54.1612
2023 1 -25.7915 -28.5786 -54.1548
421 1 -28.5844 -28.5144 -57.0601
384 1 -24.227 -30.0819 -55.6471
1985 1 -22.7851 -31.4599 -54.0958
2025 1 -22.9062 -28.5756 -54.2164
385 1 -22.7281 -31.3518 -56.9528
386 1 -21.294 -29.8549 -55.6876
388 1 -18.5879 -29.8928 -55.5984
1987 1 -20.0191 -31.4752 -54.219
390 1 -15.6972 -29.9345 -55.5833
1989 1 -17.1245 -31.3098 -54.2195
391 1 -14.3199 -31.4708 -57.0579
389 1 -17.111 -31.4306 -57
1991 1 -14.2556 -31.3979 -54.1849
392 1 -12.859 -29.9623 -55.6871
1993 1 -11.4714 -31.3812 -54.1909
394 1 -10.0772 -29.8952 -55.724
1995 1 -8.57947 -31.2767 -54.2714
395 1 -8.59866 -31.3237 -57.0882
396 1 -7.19175 -29.8698 -55.6874
398 1 -4.37708 -29.8286 -55.647
1997 1 -5.72827 -31.4679 -54.2643
400 1 -1.48961 -29.9741 -55.6956
1999 1 -2.93713 -31.254 -54.3074
64596 1 -0.0776471 -31.5002 -54.438
64636 1 0.0198741 -28.6326 -54.2694
2003 1 -54.4287 -28.4761 -54.2182
402 1 -55.6501 -27.0084 -55.7726
2043 1 -54.2702 -25.7679 -54.1333
2001 1 -57.0678 -28.5283 -54.1888
443 1 -54.1941 -25.6561 -56.9774
441 1 -57.0713 -25.543 -57.0387
405 1 -51.5998 -28.5346 -56.9312
404 1 -52.7717 -27.1378 -55.5704
2045 1 -51.4338 -25.6951 -53.9879
406 1 -50.1123 -27.1817 -55.5474
445 1 -51.4253 -25.7572 -56.9715
408 1 -47.2675 -27.0518 -55.7575
2047 1 -48.5129 -25.7922 -54.1659
410 1 -44.2646 -27.2556 -55.8285
2049 1 -45.5813 -25.7478 -54.3191
2051 1 -42.8287 -25.6563 -54.3712
412 1 -41.2548 -27.0339 -55.7394
2053 1 -40.026 -25.6734 -54.266
414 1 -38.5307 -27.0229 -55.6994
2055 1 -37.1148 -25.5801 -54.2434
416 1 -35.6397 -27.1302 -55.6334
457 1 -34.3425 -25.6749 -57.2028
2017 1 -34.284 -28.5509 -54.2252
418 1 -32.9692 -27.0352 -55.6406
2057 1 -34.2646 -25.7229 -54.2622
417 1 -34.2269 -28.6053 -57.1089
459 1 -31.426 -25.7534 -57.1711
420 1 -30.0671 -27.0645 -55.6159
2059 1 -31.4991 -25.6249 -54.1489
2061 1 -28.5866 -25.7225 -54.2123
461 1 -28.4569 -25.7649 -57.0164
422 1 -27.1182 -27.103 -55.7026
2063 1 -25.6602 -25.7596 -54.1689
423 1 -25.5757 -28.5333 -57.0347
424 1 -24.3218 -27.1257 -55.6039
2065 1 -22.7827 -25.7366 -54.1405
465 1 -22.8249 -25.6537 -57.0277
425 1 -22.824 -28.4382 -57.0842
467 1 -20.0827 -25.6106 -57.0508
2027 1 -19.9707 -28.5235 -54.1486
426 1 -21.435 -27.1479 -55.646
428 1 -18.5476 -26.9964 -55.6218
2067 1 -19.9388 -25.5729 -54.0719
427 1 -19.9496 -28.4953 -57.0777
2029 1 -17.1879 -28.4363 -54.1232
2031 1 -14.3968 -28.4416 -54.1746
430 1 -15.8148 -27.045 -55.5676
2069 1 -17.2038 -25.5219 -54.1877
2071 1 -14.3682 -25.5583 -54.2661
469 1 -17.2064 -25.6297 -57.1434
2033 1 -11.5003 -28.4666 -54.2903
432 1 -12.9707 -27.0743 -55.7272
2073 1 -11.5813 -25.7083 -54.3569
2035 1 -8.70105 -28.433 -54.3523
434 1 -10.0713 -27.0739 -55.9478
2075 1 -8.60952 -25.7712 -54.26
436 1 -7.17994 -27.0457 -55.7365
435 1 -8.58134 -28.5201 -57.1289
2037 1 -5.73071 -28.4522 -54.2573
438 1 -4.38477 -27.1305 -55.7536
2077 1 -5.69639 -25.6532 -54.353
2039 1 -2.98572 -28.5371 -54.2126
440 1 -1.51651 -27.2379 -55.7082
2079 1 -2.91768 -25.7598 -54.4091
442 1 -55.6165 -24.2599 -55.5086
482 1 -55.3955 -21.4443 -55.4601
483 1 -54.2595 -22.9009 -57.0427
481 1 -57.153 -22.783 -56.8842
444 1 -52.9293 -24.2309 -55.4964
2085 1 -51.2987 -22.7851 -54.2421
486 1 -49.9527 -21.4204 -55.8027
446 1 -49.9983 -24.3881 -55.5884
485 1 -51.5069 -22.8273 -57.1302
448 1 -47.1433 -24.2696 -55.6967
2087 1 -48.54 -22.8771 -54.1603
488 1 -47.0936 -21.5385 -55.7994
487 1 -48.6266 -22.9839 -57.0722
489 1 -45.6218 -22.865 -57.1458
450 1 -44.2361 -24.24 -55.8392
2089 1 -45.7305 -22.966 -54.3365
490 1 -44.2763 -21.3445 -55.7321
2091 1 -42.8 -22.8158 -54.225
452 1 -41.3374 -24.2578 -55.7317
2093 1 -39.9602 -22.8598 -54.1585
491 1 -42.7418 -22.8039 -56.9541
454 1 -38.586 -24.1977 -55.6223
2095 1 -37.0805 -22.9448 -54.2638
456 1 -35.6388 -24.2087 -55.7359
458 1 -32.9842 -24.2298 -55.6573
2097 1 -34.2965 -22.8252 -54.2237
460 1 -29.8723 -24.3408 -55.6856
2099 1 -31.333 -22.7444 -54.179
2101 1 -28.7158 -22.8511 -54.2644
501 1 -28.6159 -23.0061 -57.0982
499 1 -31.4207 -22.8491 -57.014
462 1 -27.1381 -24.3447 -55.4809
2103 1 -25.7616 -22.7375 -54.2363
503 1 -25.7227 -22.892 -57.002
464 1 -24.283 -24.3156 -55.5631
2105 1 -22.8725 -22.8666 -54.2703
505 1 -22.8732 -22.8926 -57.0816
466 1 -21.4033 -24.3416 -55.6228
468 1 -18.6308 -24.1019 -55.635
2107 1 -20.0794 -22.7396 -54.1842
470 1 -15.7754 -24.1463 -55.6614
2109 1 -17.0713 -22.564 -54.2377
2111 1 -14.2664 -22.757 -54.2603
472 1 -12.972 -24.0993 -55.7884
2113 1 -11.5113 -22.6662 -54.4549
474 1 -9.96059 -24.2224 -55.6433
2115 1 -8.63052 -22.8157 -54.1901
514 1 -10.0458 -21.4365 -55.6154
476 1 -7.21147 -24.2313 -55.5757
478 1 -4.27629 -24.2772 -55.6479
2117 1 -5.64199 -22.8483 -54.2572
518 1 -4.34445 -21.3595 -55.7412
480 1 -1.35043 -24.2538 -55.6262
2119 1 -2.74606 -22.7776 -54.2254
519 1 -2.79701 -22.8835 -56.9697
521 1 -57.0093 -20.0281 -57.0215
522 1 -55.6819 -18.6283 -55.7126
2123 1 -54.1534 -19.9158 -54.2356
2121 1 -57.0395 -19.9851 -54.1523
484 1 -52.8301 -21.4607 -55.4907
524 1 -52.7111 -18.611 -55.6963
2125 1 -51.1841 -19.9355 -54.3042
526 1 -49.9065 -18.5611 -55.764
528 1 -47.1812 -18.6059 -55.8958
2127 1 -48.4033 -19.9469 -54.3306
529 1 -45.8258 -20.0735 -57.1065
531 1 -42.9441 -19.8876 -57.0539
530 1 -44.3375 -18.6301 -55.7424
2129 1 -45.7937 -19.9873 -54.3364
2131 1 -42.9256 -19.9159 -54.2722
492 1 -41.4299 -21.3262 -55.6619
532 1 -41.4688 -18.5625 -55.6699
2133 1 -40.0283 -19.8689 -54.2576
494 1 -38.5375 -21.4041 -55.652
534 1 -38.56 -18.6041 -55.721
2135 1 -37.1055 -19.9916 -54.1643
496 1 -35.7868 -21.3651 -55.6926
536 1 -35.7677 -18.5817 -55.6304
535 1 -37.2212 -19.9527 -57.1355
498 1 -32.7549 -21.4649 -55.6545
538 1 -32.8578 -18.5358 -55.6891
2137 1 -34.2269 -20.1184 -54.1916
537 1 -34.194 -19.9316 -56.941
541 1 -28.7067 -20.0374 -57.1209
500 1 -30.0656 -21.3959 -55.646
540 1 -29.9638 -18.4444 -55.5946
2139 1 -31.3563 -20.0334 -54.2709
539 1 -31.494 -19.9307 -57.1305
502 1 -27.2416 -21.39 -55.7552
2141 1 -28.5803 -19.9585 -54.3378
542 1 -27.107 -18.6114 -55.6485
2143 1 -25.6784 -19.9876 -54.0923
543 1 -25.7114 -20.0303 -57.1323
504 1 -24.1613 -21.335 -55.6045
544 1 -24.3621 -18.4681 -55.6391
2145 1 -22.8009 -19.8831 -54.2076
506 1 -21.5158 -21.4972 -55.6241
546 1 -21.3222 -18.6042 -55.6673
545 1 -22.8469 -19.8712 -56.9931
508 1 -18.7543 -21.4622 -55.6617
548 1 -18.6559 -18.5665 -55.6125
2147 1 -20.0428 -20.0397 -54.2047
510 1 -15.6624 -21.4675 -55.7729
550 1 -15.7213 -18.5621 -55.7057
2149 1 -17.2429 -20.1046 -54.3077
512 1 -12.9677 -21.3476 -55.7616
2151 1 -14.3651 -20.0007 -54.2035
552 1 -13.0152 -18.5394 -55.7246
2153 1 -11.5199 -19.7855 -54.2463
553 1 -11.5262 -19.9707 -57.1246
516 1 -7.259 -21.5636 -55.5863
554 1 -10.0872 -18.5641 -55.6256
2155 1 -8.64728 -20.0881 -54.2604
556 1 -7.11592 -18.6011 -55.6566
555 1 -8.67543 -19.9941 -57.1466
558 1 -4.3528 -18.5674 -55.5998
2157 1 -5.75459 -19.9921 -54.1976
63156 1 -0.0421345 -19.8333 -57.1393
520 1 -1.3813 -21.4181 -55.7169
560 1 -1.611 -18.6588 -55.6656
2159 1 -2.81745 -20.0862 -54.2692
559 1 -2.86238 -19.9994 -57.114
64756 1 -0.0364512 -19.862 -54.2533
562 1 -55.6907 -15.775 -55.7426
2163 1 -54.2336 -17.1121 -54.2311
2201 1 -57.1623 -14.2904 -54.3182
2161 1 -57.1454 -17.1632 -54.2697
601 1 -57.0499 -14.2654 -57.2792
563 1 -54.1033 -17.1717 -57.054
603 1 -54.3018 -14.3218 -57.0148
564 1 -52.797 -15.6562 -55.568
2165 1 -51.3147 -17.0326 -54.292
566 1 -49.9438 -15.7449 -55.6609
2205 1 -51.4601 -14.3462 -54.2863
568 1 -47.075 -15.7655 -55.7932
2167 1 -48.4308 -17.1503 -54.1797
2207 1 -48.5237 -14.2527 -54.314
570 1 -44.2915 -15.6937 -55.7031
2169 1 -45.7809 -17.1447 -54.2502
2209 1 -45.8838 -14.3646 -54.2726
2171 1 -42.887 -17.1507 -54.2026
2211 1 -42.9945 -14.3075 -54.1899
571 1 -42.9806 -17.1562 -57.1512
569 1 -45.6764 -17.1561 -57.1966
613 1 -39.9696 -14.3014 -57.0505
572 1 -41.5643 -15.6749 -55.7044
2173 1 -40.0655 -17.0638 -54.3767
573 1 -40.0982 -16.9829 -56.9403
574 1 -38.5781 -15.6298 -55.6916
2175 1 -37.2951 -17.2246 -54.3059
2215 1 -37.1664 -14.259 -54.2203
575 1 -37.0967 -17.0474 -56.9834
576 1 -35.5909 -15.5824 -55.6906
578 1 -32.7488 -15.623 -55.6159
2177 1 -34.2284 -17.0147 -54.3103
2217 1 -34.2597 -14.2933 -54.2406
580 1 -29.9933 -15.6131 -55.6821
2179 1 -31.4013 -17.0886 -54.2434
2181 1 -28.5509 -17.0541 -54.2999
582 1 -27.2606 -15.8111 -55.6545
2183 1 -25.6744 -17.0499 -54.1757
2223 1 -25.6989 -14.3083 -54.2714
583 1 -25.7455 -17.0409 -57.1166
584 1 -24.3494 -15.7642 -55.8341
2185 1 -22.9063 -17.1746 -54.2834
2225 1 -22.796 -14.3395 -54.4112
586 1 -21.3879 -15.7726 -55.7309
588 1 -18.5486 -15.8077 -55.7506
2187 1 -19.9916 -17.1714 -54.3026
2227 1 -19.9735 -14.3553 -54.269
590 1 -15.7005 -15.6225 -55.7948
2189 1 -17.1632 -17.1245 -54.3282
2191 1 -14.4464 -17.0943 -54.2815
592 1 -12.9435 -15.777 -55.6445
2193 1 -11.5022 -17.2203 -54.3529
2233 1 -11.5321 -14.3346 -54.2807
594 1 -10.0567 -15.8322 -55.7772
2195 1 -8.62671 -17.1804 -54.3704
596 1 -7.28867 -15.7537 -55.7944
595 1 -8.59975 -17.2635 -57.0989
598 1 -4.43127 -15.7071 -55.7866
2197 1 -5.66051 -17.1765 -54.3067
63196 1 0.00319861 -17.1792 -57.1627
600 1 -1.42719 -15.769 -55.7106
2199 1 -2.91814 -17.014 -54.2342
64836 1 0.0339571 -14.267 -54.2934
599 1 -2.94971 -17.1212 -57.1314
64796 1 -0.0267857 -17.0401 -54.2478
2203 1 -54.3888 -14.318 -54.2251
602 1 -55.732 -12.8034 -55.6616
2243 1 -54.2788 -11.4421 -54.2257
2241 1 -57.0844 -11.4511 -54.2294
641 1 -57.047 -11.5127 -57.1624
604 1 -52.7588 -12.9514 -55.7199
2245 1 -51.3871 -11.3491 -54.2596
606 1 -49.9886 -12.8274 -55.6578
645 1 -51.2681 -11.3262 -57.0472
647 1 -48.6034 -11.383 -57.0169
608 1 -47.1105 -12.8024 -55.7184
2247 1 -48.4232 -11.4526 -54.2431
607 1 -48.5454 -14.2439 -57.0484
610 1 -44.4354 -12.8253 -55.6622
2249 1 -45.7364 -11.4213 -54.2251
2251 1 -42.9632 -11.4353 -54.4107
2213 1 -40.0925 -14.2482 -54.2154
612 1 -41.4582 -12.8296 -55.6975
2253 1 -39.9236 -11.4644 -54.2389
614 1 -38.6901 -12.7751 -55.6761
2255 1 -37.1478 -11.3691 -54.1606
616 1 -35.8088 -12.6889 -55.5826
615 1 -37.1215 -14.1398 -57.0018
618 1 -32.8435 -12.8533 -55.6302
2257 1 -34.3079 -11.3413 -54.1728
617 1 -34.24 -14.2136 -57.1739
2219 1 -31.4637 -14.2042 -54.2526
620 1 -30.1487 -12.7818 -55.79
2259 1 -31.5054 -11.3968 -54.1547
2221 1 -28.7801 -14.1055 -54.2078
2261 1 -28.6518 -11.3796 -54.3176
621 1 -28.6663 -14.1908 -57.1117
622 1 -27.1979 -12.8255 -55.6027
2263 1 -25.5519 -11.4874 -54.3174
624 1 -24.1913 -12.8593 -55.719
2265 1 -22.8028 -11.3897 -54.3485
626 1 -21.3 -12.9099 -55.6483
628 1 -18.6439 -12.9277 -55.803
2267 1 -19.9639 -11.4822 -54.3033
667 1 -19.9586 -11.4199 -57.2112
2231 1 -14.2339 -14.3063 -54.3136
2229 1 -17.0783 -14.2975 -54.2589
630 1 -15.7159 -12.8462 -55.7309
2269 1 -17.1501 -11.5068 -54.2711
2271 1 -14.3825 -11.4047 -54.2202
669 1 -17.0679 -11.368 -57.0431
632 1 -12.9197 -12.8184 -55.7239
2273 1 -11.3323 -11.4547 -54.2386
2235 1 -8.65237 -14.3259 -54.3351
634 1 -9.99711 -12.8764 -55.75
2275 1 -8.54952 -11.3998 -54.2613
636 1 -7.25945 -12.8393 -55.718
2237 1 -5.82869 -14.2 -54.4235
638 1 -4.23578 -13.0119 -55.859
2277 1 -5.77899 -11.4553 -54.3346
2239 1 -2.86561 -14.3494 -54.2875
640 1 -1.36659 -12.8614 -55.7912
2279 1 -2.90032 -11.4347 -54.3198
679 1 -2.99813 -11.4065 -57.124
642 1 -55.6651 -10.0955 -55.6445
2283 1 -54.2052 -8.68935 -54.2772
682 1 -55.6021 -7.2805 -55.7137
644 1 -52.8232 -9.91607 -55.6913
2285 1 -51.4803 -8.61184 -54.1486
646 1 -49.8787 -9.93347 -55.5391
684 1 -52.8812 -7.23188 -55.5318
685 1 -51.3481 -8.61658 -57.0499
648 1 -47.1662 -9.88753 -55.6306
2287 1 -48.4647 -8.60418 -54.1254
688 1 -47.2215 -7.208 -55.5883
686 1 -49.9697 -7.24678 -55.6488
650 1 -44.1909 -9.82445 -55.6348
2289 1 -45.708 -8.5291 -54.2016
690 1 -44.1516 -7.1985 -55.5515
2291 1 -42.8346 -8.53481 -54.1438
652 1 -41.4379 -10.0164 -55.6324
2293 1 -40.0432 -8.5769 -54.1902
692 1 -41.3391 -7.17888 -55.6365
654 1 -38.591 -9.96592 -55.7025
2295 1 -37.0419 -8.57215 -54.2757
694 1 -38.6727 -7.23948 -55.7105
656 1 -35.7661 -9.96484 -55.6074
658 1 -32.696 -9.94401 -55.684
2297 1 -34.289 -8.56335 -54.1997
697 1 -34.2664 -8.61233 -57.0884
660 1 -30.0219 -9.86128 -55.7358
2299 1 -31.4099 -8.44884 -54.2278
2301 1 -28.5522 -8.47257 -54.1913
662 1 -27.1319 -9.97069 -55.6332
2303 1 -25.7098 -8.53016 -54.2045
664 1 -24.3253 -10.0395 -55.6907
2305 1 -22.8168 -8.59575 -54.2125
704 1 -24.3084 -7.13723 -55.7092
666 1 -21.3039 -9.96502 -55.6418
668 1 -18.5724 -9.99397 -55.6877
2307 1 -19.947 -8.53407 -54.2445
708 1 -18.5965 -7.24538 -55.7152
706 1 -21.2892 -7.20369 -55.7953
670 1 -15.7114 -10.0196 -55.6702
2309 1 -17.1059 -8.67623 -54.2099
2311 1 -14.2637 -8.59007 -54.2378
710 1 -15.7257 -7.22625 -55.5986
672 1 -12.8184 -9.98345 -55.745
2313 1 -11.3869 -8.52589 -54.2475
712 1 -12.8649 -7.20461 -55.6085
713 1 -11.3889 -8.5287 -57.0242
674 1 -9.96871 -10.0554 -55.8047
2315 1 -8.52344 -8.57069 -54.3436
676 1 -7.16981 -9.96583 -55.7011
678 1 -4.31481 -10.0605 -55.6822
2317 1 -5.62263 -8.63347 -54.3306
716 1 -7.01658 -7.14899 -55.6622
680 1 -1.45201 -9.9237 -55.6681
2319 1 -2.89737 -8.60114 -54.2989
722 1 -55.6823 -4.39278 -55.7262
2323 1 -54.2427 -5.82632 -54.2798
721 1 -57.0717 -5.71233 -57.1912
724 1 -52.8199 -4.52167 -55.6457
2325 1 -51.3746 -5.67662 -54.1369
726 1 -50.0128 -4.31428 -55.7661
728 1 -47.1961 -4.46988 -55.762
2327 1 -48.5318 -5.66792 -54.1333
727 1 -48.5804 -5.83703 -57.0642
730 1 -44.3214 -4.43079 -55.724
2329 1 -45.7984 -5.79855 -54.0661
2331 1 -42.7776 -5.69409 -54.136
732 1 -41.3626 -4.36718 -55.6879
2333 1 -39.9502 -5.73051 -54.3285
731 1 -42.8044 -5.71983 -57.08