ITEM: TIMESTEP
100000
ITEM: NUMBER OF ATOMS
24050
ITEM: BOX BOUNDS pp pp pp
-63.6699107445 63.6699107445
-53.93918023 53.93918023
-53.6233749296 53.6233749296
ITEM: ATOMS type id x y z
1 94 -53.5356 -4.28186 -25.0698
1 104 -40.8 -4.57289 -25.0793
1 108 -35.7288 -4.43876 -25.0
1 118 -22.874 -4.56918 -25.2084
1 15 -26.7303 0.160669 -25.9952
1 16 -24.2498 0.221895 -25.754
1 1 -62.4544 0.318558 -25.7697
1 3 -57.2977 0.358201 -25.8894
1 2 -59.8867 0.135153 -25.7705
1 19 -59.8403 2.99444 -25.2532
1 20 -57.2818 2.97456 -25.1521
1 4 -54.8869 0.411784 -25.6576
1 21 -54.7806 3.01046 -25.211
1 5 -52.3505 0.173872 -25.8559
1 22 -52.3149 3.06924 -25.4508
1 6 -49.8036 0.238266 -25.8055
1 7 -47.1933 0.13865 -25.7299
1 8 -44.4869 0.190223 -25.8907
1 9 -42.0697 0.174553 -25.82
1 10 -39.5263 0.106989 -25.6823
1 27 -39.5698 2.94992 -25.3811
1 26 -42.1408 3.0673 -25.3898
1 11 -37.0195 0.354984 -25.9008
1 28 -37.0334 3.05278 -25.2292
1 12 -34.5577 0.155603 -26.0218
1 29 -34.5951 2.80854 -25.2091
1 30 -31.9267 2.94868 -25.4057
1 13 -31.9176 0.0344289 -25.7529
1 14 -29.318 0.289914 -25.7015
1 31 -29.2855 3.17923 -25.4782
1 32 -26.7954 3.02459 -25.3572
1 17 -21.6254 0.215009 -25.8531
1 34 -21.5665 2.95388 -25.4266
1 33 -24.11 2.90647 -25.4783
1 324 -62.5907 -12.4777 -22.0243
1 325 -60.0544 -12.7894 -21.9847
1 326 -57.5094 -12.6311 -22.1321
1 327 -54.8259 -12.5826 -22.0841
1 328 -52.1561 -12.4641 -22.1216
1 329 -49.8488 -12.5619 -22.0516
1 330 -47.2297 -12.669 -22.0356
1 331 -44.6498 -12.8754 -22.0919
1 357 -43.4318 -10.9211 -23.2744
1 332 -42.2462 -12.7808 -21.9726
1 333 -39.7157 -12.574 -21.873
1 334 -37.0833 -12.6061 -22.079
1 335 -34.4968 -12.7903 -22.0223
1 336 -31.8981 -12.6682 -22.0243
1 337 -29.2083 -12.8271 -22.1227
1 338 -26.6305 -12.554 -22.1946
1 340 -21.5404 -12.6064 -22.1281
1 339 -24.0169 -12.5662 -22.2872
1 343 -61.3578 -10.8804 -23.3942
1 377 -61.2131 -7.96931 -22.8316
1 4244 -50.9723 0.110871 0.00893558
1 345 -58.8369 -10.8654 -23.3308
1 379 -58.6483 -8.11209 -22.7806
1 347 -56.0032 -10.6837 -23.4668
1 349 -53.5154 -10.7912 -23.3278
1 383 -53.6521 -8.08573 -22.7026
1 381 -56.1828 -8.16988 -22.7513
1 351 -50.8898 -10.4621 -23.5008
1 385 -50.9537 -8.0416 -22.772
1 353 -48.528 -10.74 -23.5054
1 387 -48.4962 -8.1151 -22.7242
1 355 -45.9319 -10.9558 -23.2935
1 389 -45.8804 -8.15236 -22.8793
1 391 -43.4234 -8.10964 -22.7457
1 359 -40.9544 -10.9543 -23.2688
1 393 -40.8089 -8.20868 -22.8011
1 363 -35.6684 -10.8559 -23.5195
1 361 -38.2762 -10.7116 -23.3575
1 397 -35.6283 -8.25829 -22.8233
1 395 -38.3126 -8.08617 -22.6618
1 365 -33.1394 -10.79 -23.237
1 399 -33.1233 -8.05276 -22.72
1 367 -30.5233 -10.9415 -23.3524
1 401 -30.6197 -8.20929 -22.9352
1 369 -28.0628 -10.9175 -23.2664
1 371 -25.4471 -10.6153 -23.4737
1 403 -28.0432 -8.20566 -22.7656
1 405 -25.4554 -8.17696 -22.8766
1 373 -22.8273 -10.6902 -23.2833
1 407 -22.7082 -8.02311 -22.805
1 88 -61.2151 -4.19329 -25.0525
1 69 -62.4844 -6.19346 -24.0883
1 411 -61.2901 -5.12537 -22.1744
1 90 -58.5927 -4.3849 -25.3317
1 70 -59.8452 -6.25353 -24.0549
1 71 -57.3434 -6.1246 -24.0141
1 413 -58.6405 -5.09669 -22.1081
1 92 -56.0641 -4.17689 -25.1087
1 72 -54.863 -6.09102 -24.0079
1 415 -56.1062 -5.08064 -22.189
1 417 -53.5739 -5.07873 -22.1072
1 96 -51.0754 -4.37132 -25.0633
1 73 -52.3772 -6.35707 -23.876
1 74 -49.8007 -6.23741 -24.0309
1 419 -50.8549 -5.07031 -22.1039
1 98 -48.4347 -4.3895 -25.0588
1 75 -47.1034 -6.2072 -23.9582
1 421 -48.3211 -5.17145 -22.1584
1 102 -43.4452 -4.17222 -25.179
1 100 -45.988 -4.30164 -25.407
1 423 -45.869 -5.20592 -22.2101
1 76 -44.4956 -6.07414 -24.0198
1 425 -43.3866 -5.06955 -22.1892
1 77 -42.0618 -6.44153 -23.9532
1 78 -39.6038 -6.29342 -23.85
1 427 -40.955 -5.14552 -22.1673
1 106 -38.1091 -4.41781 -25.0797
1 79 -36.9309 -6.37111 -23.9591
1 429 -38.2124 -5.14319 -22.0609
1 431 -35.7448 -5.08924 -22.1698
1 110 -33.1461 -4.52918 -25.067
1 80 -34.5131 -6.33217 -23.9778
1 433 -33.1427 -5.26667 -22.2849
1 81 -31.8548 -6.15408 -24.0584
1 112 -30.6072 -4.36231 -25.3827
1 82 -29.3085 -6.37787 -24.0045
1 435 -30.4543 -5.15363 -22.1243
1 114 -28.0156 -4.45848 -25.235
1 116 -25.4807 -4.48904 -25.0736
1 83 -26.7753 -6.28594 -23.9312
1 439 -25.4396 -5.24243 -22.2822
1 437 -27.935 -5.17165 -22.122
1 84 -24.1989 -6.25832 -24.0552
1 85 -21.6132 -6.44109 -24.0481
1 441 -22.9222 -5.27788 -22.2305
1 87 -62.5153 -3.39605 -23.1648
1 122 -61.1066 -1.62935 -24.5491
1 121 -62.3232 -0.341423 -22.9542
1 4542 -57.3192 -25.7688 -0.464075
1 89 -59.9343 -3.29916 -23.1987
1 91 -57.4082 -3.21943 -23.3175
1 124 -58.5402 -1.55523 -24.6975
1 123 -59.788 -0.454068 -22.6907
1 125 -57.3048 -0.47484 -22.7387
1 93 -54.874 -3.1884 -23.2561
1 128 -53.4844 -1.6146 -24.5625
1 126 -56.0528 -1.44396 -24.4916
1 127 -54.7007 -0.390713 -22.7686
1 95 -52.3239 -3.37435 -23.2695
1 97 -49.7046 -3.37649 -23.2011
1 130 -50.9476 -1.67371 -24.4381
1 129 -52.2913 -0.446377 -22.7967
1 131 -49.7637 -0.472429 -22.8599
1 99 -47.173 -3.36515 -23.3158
1 132 -48.4116 -1.64867 -24.6739
1 133 -47.1858 -0.517243 -22.8027
1 101 -44.6869 -3.37807 -23.441
1 134 -45.8856 -1.57344 -24.6667
1 136 -43.395 -1.6497 -24.6538
1 135 -44.5809 -0.441856 -22.7894
1 103 -42.1053 -3.43893 -23.3179
1 105 -39.5325 -3.42057 -23.3699
1 138 -40.7529 -1.61952 -24.4359
1 137 -42.1385 -0.362443 -22.7854
1 139 -39.5393 -0.443 -22.7923
1 107 -36.887 -3.3581 -23.1975
1 140 -38.1482 -1.73043 -24.5916
1 142 -35.7123 -1.57876 -24.5719
1 141 -36.8983 -0.50093 -22.7186
1 109 -34.499 -3.36853 -23.2339
1 144 -33.1325 -1.63326 -24.4677
1 143 -34.3768 -0.524006 -22.766
1 111 -31.8258 -3.36582 -23.3162
1 145 -31.8426 -0.395216 -22.84
1 467 -33.0598 -2.21511 -21.5155
1 113 -29.2096 -3.40982 -23.3058
1 146 -30.6524 -1.67493 -24.5883
1 147 -29.2263 -0.431987 -22.9068
1 115 -26.6991 -3.43113 -23.3152
1 150 -25.4109 -1.77917 -24.7162
1 148 -27.9064 -1.7776 -24.7786
1 149 -26.6862 -0.530618 -22.9238
1 473 -25.4221 -2.12483 -21.7565
1 119 -21.6694 -3.49981 -23.3787
1 117 -24.1602 -3.46027 -23.3242
1 152 -22.9245 -1.73768 -24.6795
1 151 -24.1121 -0.553293 -22.9396
1 153 -21.6366 -0.488996 -22.9246
1 475 -22.8605 -2.24846 -21.6769
1 18 -62.4227 2.95742 -25.1278
1 156 -61.116 1.31262 -23.8451
1 155 -62.5037 2.49984 -22.1414
1 158 -58.6493 1.24446 -23.917
1 159 -57.3705 2.51143 -22.1478
1 157 -59.7584 2.54778 -22.2516
1 160 -56.1531 1.29662 -23.8472
1 162 -53.3574 1.31712 -23.9617
1 161 -54.8969 2.52285 -22.1646
1 23 -49.9178 2.94117 -25.3626
1 164 -50.8969 1.26414 -23.9814
1 163 -52.2441 2.5678 -22.2534
1 165 -49.7556 2.4856 -22.1916
1 24 -47.2362 3.0557 -25.3361
1 166 -48.383 1.30972 -23.9231
1 167 -47.1858 2.59238 -22.1094
1 25 -44.6674 3.04232 -25.3011
1 168 -45.9848 1.26981 -23.9749
1 170 -43.3231 1.32224 -23.9665
1 169 -44.6492 2.44746 -22.4048
1 172 -40.7155 1.24493 -23.9718
1 171 -42.0616 2.49427 -22.2063
1 173 -39.4944 2.48193 -22.253
1 174 -38.2546 1.18172 -23.9244
1 176 -35.7447 1.23666 -23.9743
1 175 -36.961 2.43677 -22.2659
1 178 -33.1648 1.16967 -24.0969
1 177 -34.3088 2.38129 -22.2244
1 179 -31.844 2.48348 -22.3068
1 180 -30.5842 1.28709 -24.0002
1 181 -29.1655 2.4811 -22.3258
1 184 -25.4577 1.2858 -23.8642
1 182 -27.8842 1.30892 -23.9341
1 183 -26.6784 2.50377 -22.3171
1 186 -22.8837 1.28956 -24.0891
1 187 -21.5707 2.45578 -22.3752
1 185 -24.1569 2.43649 -22.3248
1 190 -61.1841 4.1556 -23.4651
1 35 -62.3832 6.07977 -24.7267
1 224 -61.224 7.11449 -22.8296
1 3348 -22.9793 24.6331 -1.74473
1 192 -58.6429 4.14732 -23.5492
1 36 -59.9535 5.80272 -24.8509
1 37 -57.4123 5.96434 -24.7109
1 191 -59.8633 5.33074 -21.7646
1 193 -57.3582 5.43841 -21.8234
1 226 -58.6926 7.06354 -22.8794
1 196 -53.4611 4.2498 -23.4757
1 194 -56.0863 4.26236 -23.4803
1 38 -54.8097 5.93534 -24.8884
1 228 -56.1157 7.06798 -22.9443
1 230 -53.5575 7.14363 -23.0086
1 195 -54.8193 5.39219 -21.7052
1 198 -50.9105 4.15542 -23.5522
1 39 -52.2206 5.84675 -24.6915
1 232 -51.0008 7.13684 -22.9706
1 197 -52.2069 5.43762 -21.7757
1 40 -49.727 5.82337 -24.7422
1 199 -49.7311 5.38156 -21.6857
1 200 -48.3581 4.12532 -23.4163
1 41 -47.301 5.98861 -24.6616
1 234 -48.5537 7.26952 -22.9503
1 201 -47.1326 5.47227 -21.7087
1 202 -45.9757 4.24916 -23.5161
1 204 -43.4271 4.11842 -23.4368
1 236 -45.9073 7.12279 -22.9371
1 42 -44.6355 5.98301 -24.7295
1 238 -43.4853 7.09879 -22.9984
1 203 -44.5812 5.36282 -21.7661
1 206 -40.7397 4.16375 -23.4498
1 44 -39.5224 5.90448 -24.8612
1 43 -42.0441 5.73158 -24.806
1 240 -40.7747 7.05986 -23.0068
1 205 -41.9919 5.43153 -21.8214
1 208 -38.2682 4.16906 -23.4619
1 210 -35.744 4.21459 -23.5226
1 45 -36.9809 5.92848 -24.8437
1 242 -38.2564 7.10226 -23.0112
1 244 -35.651 7.0899 -22.9928
1 209 -36.9823 5.36792 -21.6946
1 46 -34.4097 5.90473 -24.7729
1 212 -33.1797 4.08334 -23.5318
1 246 -33.0591 7.13206 -23.0371
1 213 -31.7701 5.28227 -21.7561
1 211 -34.3915 5.35455 -21.877
1 47 -31.9416 5.79979 -24.8049
1 214 -30.582 4.15388 -23.5651
1 48 -29.3688 5.92166 -24.897
1 248 -30.6406 6.91242 -22.9549
1 215 -29.3191 5.33707 -21.7963
1 216 -28.0261 4.17413 -23.475
1 218 -25.4481 4.18137 -23.5696
1 49 -26.734 5.86449 -24.8757
1 250 -27.9851 7.07854 -23.0326
1 252 -25.3947 7.04455 -22.9485
1 217 -26.6744 5.37275 -21.8375
1 220 -22.8799 4.13184 -23.596
1 50 -24.2822 5.7194 -24.9425
1 51 -21.6956 5.78761 -24.9422
1 254 -22.9451 7.04362 -23.05
1 219 -24.1074 5.26559 -21.8697
1 221 -21.5852 5.4034 -21.8583
1 52 -62.5364 8.69718 -24.2916
1 258 -61.2343 10.2112 -22.7511
1 4541 -59.7852 -25.4884 -0.245043
1 53 -59.8333 8.58742 -24.3695
1 54 -57.3148 8.62907 -24.2468
1 260 -58.6549 10.1538 -22.6521
1 55 -54.894 8.75627 -24.2223
1 262 -56.163 10.1306 -22.6195
1 264 -53.64 10.1586 -22.548
1 56 -52.3497 8.80593 -24.3241
1 57 -49.9326 8.82462 -24.2054
1 266 -51.1127 10.1069 -22.4558
1 58 -47.322 8.73633 -24.2912
1 268 -48.587 10.248 -22.75
1 270 -45.9431 10.119 -22.6202
1 59 -44.5962 8.73827 -24.2479
1 272 -43.1879 10.1668 -22.5477
1 60 -41.9709 8.70323 -24.2363
1 61 -39.5811 8.558 -24.4441
1 274 -40.583 10.0954 -22.6303
1 62 -36.9149 8.63544 -24.4342
1 276 -38.0889 9.96368 -22.8589
1 278 -35.5745 10.0038 -22.5221
1 63 -34.4985 8.76294 -24.2756
1 280 -33.0625 10.0929 -22.7475
1 64 -31.847 8.59811 -24.3585
1 65 -29.3805 8.74448 -24.4435
1 282 -30.5572 9.95876 -22.5212
1 66 -26.5582 8.63838 -24.2884
1 284 -27.8874 10.119 -22.7169
1 286 -25.4372 9.92435 -22.6
1 67 -24.1082 8.56677 -24.3835
1 68 -21.5816 8.73224 -24.4936
1 288 -22.9344 9.97937 -22.697
1 292 -61.4618 12.7253 -22.0822
1 3313 -24.1406 22.8205 -0.57229
1 294 -58.8639 12.9457 -21.9941
1 296 -56.1276 12.9257 -22.0378
1 298 -53.4824 12.9331 -22.0547
1 300 -51.0401 12.7749 -22.2714
1 302 -48.4613 13.0114 -22.1699
1 304 -45.7793 12.8816 -22.1406
1 306 -43.2918 12.8724 -22.1755
1 308 -40.66 12.7468 -22.3123
1 310 -38.1915 12.8223 -22.1353
1 312 -35.646 12.7125 -22.1609
1 314 -33.0186 12.8922 -22.1552
1 316 -30.5919 12.8504 -22.1112
1 318 -28.0651 12.8753 -22.0642
1 320 -25.5789 12.8167 -22.1836
1 322 -22.9519 12.8321 -22.3249
1 1178 -58.6232 -17.9514 -18.3122
1 1180 -56.2516 -17.9261 -18.3277
1 1190 -43.3814 -18.4386 -18.3566
1 1194 -38.3687 -18.0213 -18.2323
1 1200 -30.5841 -18.0732 -18.3382
1 1176 -61.3224 -17.9054 -18.1826
1 715 -62.3728 -16.0969 -19.605
1 734 -61.2658 -14.3654 -20.7905
1 716 -59.9418 -16.2675 -19.6347
1 717 -57.3252 -16.2147 -19.6841
1 718 -54.6719 -16.2076 -19.651
1 1182 -53.5235 -18.0183 -18.3279
1 1184 -51.0972 -18.1537 -18.2564
1 719 -52.2665 -16.2573 -19.5602
1 720 -49.8176 -16.4399 -19.5885
1 744 -48.5634 -14.4437 -20.7896
1 721 -47.1475 -16.3635 -19.3896
1 1188 -46.0332 -18.3306 -18.2128
1 748 -43.3805 -14.5376 -20.6786
1 722 -44.6427 -16.2995 -19.3876
1 1192 -40.7971 -18.0896 -18.298
1 723 -42.125 -16.2649 -19.4986
1 724 -39.6179 -16.2606 -19.6091
1 725 -37.082 -16.2984 -19.477
1 1196 -35.6746 -18.1179 -18.3806
1 1198 -33.1948 -18.0386 -18.1217
1 756 -33.1968 -14.4838 -20.952
1 726 -34.3652 -16.2703 -19.502
1 727 -31.9112 -16.3396 -19.6196
1 758 -30.6476 -14.5036 -20.7891
1 728 -29.2482 -16.2904 -19.4913
1 1204 -25.2847 -18.5171 -18.3771
1 1202 -27.8479 -18.1286 -18.3307
1 729 -26.5504 -16.4211 -19.554
1 764 -22.9427 -14.5889 -20.807
1 731 -21.6012 -16.3124 -19.6014
1 730 -24.2245 -16.3375 -19.5352
1 1206 -22.8169 -18.0466 -18.353
1 768 -61.2176 -11.5343 -20.2351
1 733 -62.4648 -13.0533 -18.9244
1 736 -58.7027 -14.4875 -20.7398
1 770 -58.6561 -11.4545 -20.2872
1 737 -57.5483 -13.1975 -19.0651
1 735 -59.9645 -13.2659 -19.0132
1 738 -56.1752 -14.4237 -20.9364
1 740 -53.4123 -14.5387 -20.9195
1 772 -56.1086 -11.5823 -20.3802
1 774 -53.48 -11.6062 -20.222
1 739 -54.7765 -13.243 -19.1742
1 742 -51.0145 -14.5093 -20.913
1 776 -50.9534 -11.4946 -20.2031
1 741 -52.2147 -13.2854 -19.0611
1 743 -49.6732 -13.228 -19.0581
1 778 -48.4584 -11.5796 -20.3449
1 745 -47.2014 -13.2149 -19.0396
1 746 -45.9587 -14.6077 -20.7295
1 780 -45.8959 -11.5562 -20.3153
1 782 -43.3175 -11.5292 -20.3091
1 747 -44.6018 -13.1918 -19.0827
1 750 -40.8357 -14.3847 -20.7983
1 784 -40.852 -11.5326 -20.1547
1 749 -42.0147 -13.168 -19.0049
1 751 -39.5289 -13.2747 -19.0883
1 754 -35.8093 -14.4936 -20.8487
1 752 -38.3263 -14.4643 -20.7091
1 786 -38.4119 -11.4593 -20.2124
1 788 -35.7282 -11.5584 -20.1849
1 753 -36.9455 -13.3662 -19.1299
1 790 -33.1733 -11.6214 -20.32
1 755 -34.4071 -13.304 -19.0498
1 757 -31.8392 -13.2119 -19.0788
1 792 -30.6153 -11.6544 -20.3486
1 759 -29.3172 -13.3139 -19.1578
1 760 -27.9291 -14.705 -20.7442
1 762 -25.3978 -14.4175 -20.902
1 794 -28.1449 -11.5588 -20.3494
1 796 -25.4257 -11.6142 -20.3029
1 761 -26.6726 -13.2432 -19.124
1 798 -22.7055 -11.6107 -20.4059
1 763 -23.9713 -13.1731 -19.1723
1 765 -21.5079 -13.2649 -19.171
1 342 -62.3958 -9.69021 -21.3765
1 802 -61.1029 -8.5071 -19.6919
1 767 -62.6923 -10.2334 -18.4692
1 769 -59.9573 -10.1888 -18.6344
1 344 -59.9642 -9.84131 -21.4846
1 346 -57.5194 -9.77587 -21.4784
1 804 -58.6029 -8.50315 -19.8235
1 771 -57.279 -10.1476 -18.6388
1 773 -54.8191 -10.2903 -18.5229
1 348 -54.8212 -9.84234 -21.4194
1 806 -56.0118 -8.54223 -19.832
1 808 -53.4835 -8.53608 -19.7015
1 350 -52.325 -9.69007 -21.5334
1 810 -51.004 -8.57109 -19.6689
1 352 -49.7432 -9.75602 -21.3643
1 775 -52.3084 -10.2918 -18.5347
1 777 -49.6142 -10.2804 -18.4692
1 354 -47.333 -9.81625 -21.494
1 812 -48.4086 -8.57681 -19.717
1 779 -47.2041 -10.4063 -18.5064
1 814 -45.9104 -8.56537 -19.7542
1 356 -44.7512 -9.82528 -21.3671
1 816 -43.3351 -8.45712 -19.7411
1 781 -44.6935 -10.2974 -18.6074
1 783 -42.0537 -10.2909 -18.5349
1 785 -39.4947 -10.3408 -18.4059
1 360 -39.635 -9.85615 -21.3361
1 358 -42.1474 -9.83795 -21.407
1 818 -40.7695 -8.49636 -19.7576
1 787 -37.0671 -10.4232 -18.5129
1 362 -36.9215 -9.80417 -21.4296
1 820 -38.2428 -8.51717 -19.7489
1 822 -35.8042 -8.61244 -19.6225
1 789 -34.4796 -10.5013 -18.5007
1 364 -34.4622 -9.90373 -21.4206
1 824 -33.247 -8.59239 -19.6315
1 366 -31.8662 -9.75643 -21.3562
1 791 -31.9043 -10.2852 -18.6964
1 793 -29.3382 -10.3088 -18.6667
1 368 -29.3567 -9.82581 -21.4853
1 826 -30.6174 -8.56196 -19.7177
1 370 -26.6235 -9.86568 -21.449
1 795 -26.7484 -10.3421 -18.5836
1 828 -28.0175 -8.66333 -19.7142
1 830 -25.4516 -8.69429 -19.9084
1 372 -24.2078 -9.84505 -21.4473
1 374 -21.4992 -9.76486 -21.355
1 832 -22.7398 -8.6412 -19.7816
1 797 -24.1047 -10.3106 -18.6613
1 799 -21.591 -10.3655 -18.5273
1 376 -62.4152 -6.89116 -20.9691
1 836 -61.2179 -5.61094 -19.1936
1 410 -62.4184 -3.85273 -20.3607
1 378 -59.814 -6.76835 -21.0501
1 380 -57.3724 -6.82304 -21.0306
1 838 -58.5705 -5.62858 -19.2757
1 412 -59.8315 -3.93708 -20.405
1 414 -57.3428 -3.86977 -20.3898
1 382 -54.762 -6.82872 -20.958
1 842 -53.5283 -5.51299 -19.1405
1 840 -56.1168 -5.65967 -19.2574
1 416 -54.8239 -3.81636 -20.367
1 384 -52.2913 -6.8795 -21.0047
1 844 -50.9432 -5.64038 -19.1672
1 418 -52.3017 -3.86265 -20.3678
1 386 -49.6735 -6.80032 -20.9775
1 420 -49.6302 -4.00812 -20.3985
1 809 -52.3416 -7.27444 -18.0805
1 388 -47.2487 -7.00553 -20.916
1 846 -48.4719 -5.61697 -19.3031
1 422 -47.2351 -3.96695 -20.3325
1 390 -44.7043 -6.8567 -21.0194
1 848 -45.8974 -5.72541 -19.2885
1 850 -43.3732 -5.65621 -19.148
1 424 -44.6585 -3.89406 -20.4349
1 394 -39.6363 -6.87571 -20.9057
1 392 -42.1297 -6.77796 -21.0365
1 852 -40.7685 -5.60401 -19.1719
1 426 -42.1408 -3.94015 -20.4246
1 428 -39.6166 -3.92812 -20.4005
1 396 -36.8982 -7.02511 -21.0107
1 854 -38.2454 -5.88268 -19.2235
1 856 -35.7453 -5.73567 -19.2963
1 430 -36.9789 -3.96862 -20.3455
1 398 -34.5253 -6.9394 -20.92
1 858 -33.1347 -5.74079 -19.2561
1 432 -34.4324 -3.96165 -20.4279
1 434 -31.8517 -4.01836 -20.4984
1 400 -31.8168 -6.96977 -21.0441
1 402 -29.2233 -6.93632 -21.0668
1 860 -30.5673 -5.76086 -19.2181
1 436 -29.2968 -4.05423 -20.3465
1 404 -26.6738 -6.88901 -21.0612
1 862 -27.9847 -5.72338 -19.222
1 864 -25.4181 -5.72175 -19.3115
1 438 -26.6944 -3.98712 -20.4855
1 408 -21.5361 -6.88283 -20.9937
1 406 -24.1524 -6.99734 -21.0865
1 866 -22.8398 -5.72012 -19.3
1 440 -24.182 -3.99969 -20.5188
1 442 -21.5649 -4.05733 -20.4988
1 445 -61.1939 -2.19277 -21.5575
1 444 -62.3629 -0.893657 -19.8198
1 870 -61.109 -2.5982 -18.6281
1 3315 -21.6017 22.7198 -0.667062
1 447 -58.6614 -2.05323 -21.4057
1 872 -58.6201 -2.67867 -18.6035
1 446 -59.8886 -0.804467 -19.7924
1 448 -57.3676 -0.96186 -19.8127
1 451 -53.5256 -2.15318 -21.5144
1 449 -56.0336 -2.06992 -21.4951
1 874 -56.0678 -2.6346 -18.5403
1 876 -53.4759 -2.71752 -18.6467
1 450 -54.7703 -0.96038 -19.8397
1 453 -51.0994 -2.26147 -21.6053
1 878 -50.9593 -2.6524 -18.6735
1 452 -52.2678 -0.991584 -19.9505
1 454 -49.7622 -0.999097 -19.8884
1 455 -48.5123 -2.14693 -21.4865
1 880 -48.3982 -2.69367 -18.6884
1 456 -47.1467 -0.92773 -19.932
1 457 -45.9426 -2.2038 -21.6764
1 459 -43.4544 -2.18953 -21.5963
1 882 -45.9554 -2.73134 -18.635
1 884 -43.3086 -2.66626 -18.6987
1 458 -44.6313 -0.935777 -19.9004
1 461 -40.7904 -2.17536 -21.625
1 886 -40.769 -2.63467 -18.726
1 460 -41.9958 -0.949918 -19.8803
1 462 -39.4827 -1.04423 -19.8838
1 465 -35.8234 -2.10846 -21.5866
1 463 -38.2666 -2.19868 -21.5087
1 888 -38.2448 -2.78741 -18.692
1 890 -35.7153 -2.6986 -18.7568
1 464 -36.924 -1.01089 -19.7755
1 892 -33.1547 -2.73202 -18.7214
1 466 -34.3893 -0.972445 -19.9023
1 469 -30.5917 -2.19188 -21.5588
1 468 -31.7634 -1.02184 -19.8998
1 894 -30.595 -2.76634 -18.687
1 470 -29.2945 -1.10462 -19.8685
1 471 -28.0281 -2.19938 -21.6806
1 896 -28.0432 -2.85024 -18.7292
1 898 -25.4595 -2.89477 -18.7337
1 472 -26.718 -1.12125 -19.8898
1 900 -22.8295 -2.80849 -18.7625
1 474 -24.1074 -1.14134 -19.8377
1 476 -21.6632 -0.974384 -19.9451
1 904 -61.2591 0.192092 -17.994
1 479 -61.2138 0.72391 -21.0731
1 478 -62.4481 2.02488 -19.2877
1 513 -61.2014 3.71123 -20.4713
1 906 -58.5726 0.225461 -17.9286
1 481 -58.5741 0.79963 -20.9199
1 480 -59.8589 1.89104 -19.2639
1 482 -57.3811 1.99775 -19.2442
1 910 -53.4518 0.310582 -18.1913
1 483 -56.0424 0.787685 -20.9414
1 485 -53.5489 0.936084 -21.0307
1 484 -54.877 2.09771 -19.3016
1 912 -50.9674 0.36139 -18.2926
1 487 -51.0183 0.765995 -21.1009
1 486 -52.2849 2.09416 -19.3262
1 488 -49.7699 2.03026 -19.4683
1 489 -48.3673 0.776127 -21.0337
1 490 -47.111 1.98741 -19.3702
1 914 -48.4696 0.237118 -18.0734
1 916 -45.9946 0.26581 -18.1365
1 491 -45.9477 0.823293 -21.1243
1 493 -43.436 0.816455 -20.9805
1 525 -45.816 3.67905 -20.5372
1 492 -44.5447 1.9902 -19.3936
1 527 -43.2536 3.82505 -20.4468
1 918 -43.4664 0.244157 -18.1902
1 495 -40.7824 0.833774 -21.0004
1 494 -42.1501 2.01469 -19.3149
1 496 -39.5719 1.96446 -19.3573
1 529 -40.7957 3.67936 -20.5775
1 920 -40.7467 0.310757 -18.1732
1 924 -35.7133 0.199018 -18.2238
1 499 -35.7283 0.676417 -20.9851
1 497 -38.2475 0.674283 -21.1287
1 498 -36.9559 1.86585 -19.3684
1 922 -38.3326 0.238687 -18.1574
1 531 -38.172 3.58568 -20.5493
1 926 -33.2566 0.207823 -18.1963
1 501 -33.1107 0.673225 -21.0734
1 500 -34.4421 2.01254 -19.3186
1 535 -33.1206 3.66505 -20.6677
1 502 -31.8396 1.94772 -19.3298
1 503 -30.5508 0.700081 -21.0629
1 504 -29.2367 1.84171 -19.2793
1 928 -30.5097 0.213963 -18.1598
1 537 -30.5759 3.66401 -20.5283
1 505 -27.9094 0.628873 -21.0366
1 507 -25.4863 0.648349 -21.1482
1 506 -26.6263 1.88031 -19.3967
1 930 -27.9761 0.127796 -18.1319
1 541 -25.4074 3.62461 -20.6218
1 539 -27.8924 3.58946 -20.4422
1 932 -25.3778 0.165728 -18.2659
1 509 -22.9069 0.601731 -21.1855
1 508 -24.0266 1.81654 -19.4802
1 510 -21.5528 1.90269 -19.4603
1 934 -22.8314 0.185333 -18.2955
1 543 -22.9464 3.67432 -20.5925
1 189 -62.4369 5.30771 -21.7286
1 512 -62.3447 5.01186 -18.8335
1 547 -61.1453 6.56373 -20.0811
1 2737 -21.6912 23.1194 -3.42303
1 515 -58.6355 3.70555 -20.4715
1 516 -57.3151 4.93862 -18.7594
1 514 -59.7739 4.92204 -18.8783
1 549 -58.6085 6.75938 -20.0855
1 517 -56.069 3.78742 -20.5474
1 519 -53.5339 3.8056 -20.3843
1 518 -54.7814 4.95333 -18.7075
1 551 -56.2402 6.58859 -20.1337
1 553 -53.5389 6.62054 -20.095
1 521 -50.9794 3.72372 -20.6127
1 520 -52.1627 4.94153 -18.7068
1 555 -50.951 6.78926 -19.9434
1 522 -49.6529 5.02691 -18.804
1 523 -48.2837 3.72297 -20.386
1 524 -47.0974 5.06162 -18.7982
1 557 -48.4279 6.7032 -20.0121
1 559 -45.8167 6.71153 -20.0423
1 526 -44.6324 5.04378 -18.84
1 561 -43.2913 6.78109 -20.233
1 207 -39.5149 5.39072 -21.7463
1 530 -39.4362 4.80175 -18.923
1 528 -41.9655 5.03642 -18.8059
1 563 -40.7758 6.72676 -20.0375
1 533 -35.6009 3.55029 -20.6002
1 532 -36.9452 4.85409 -18.9828
1 565 -38.275 6.67045 -19.9594
1 567 -35.4541 6.59417 -20.0697
1 534 -34.3276 4.85018 -18.9229
1 569 -33.0125 6.44246 -20.1388
1 536 -31.823 4.82531 -18.8724
1 538 -29.2035 4.88992 -18.8929
1 571 -30.49 6.62941 -20.0699
1 540 -26.7212 4.88246 -18.9382
1 573 -27.936 6.63758 -20.1562
1 575 -25.3946 6.53639 -20.1371
1 542 -24.1665 4.87031 -18.8033
1 544 -21.6209 4.74452 -18.7602
1 577 -22.8849 6.51254 -20.1429
1 546 -62.4972 7.69589 -18.3106
1 223 -62.4788 8.43745 -21.2077
1 581 -61.1045 9.46316 -19.5285
1 3344 -27.9501 24.5441 -1.76691
1 548 -59.8785 7.8219 -18.2486
1 550 -57.3397 7.80022 -18.2376
1 227 -57.3599 8.41605 -21.3721
1 225 -59.8905 8.49327 -21.3891
1 583 -58.5279 9.45835 -19.5316
1 229 -54.824 8.32407 -21.3329
1 552 -54.8476 7.91538 -18.1137
1 587 -53.6325 9.55528 -19.5919
1 585 -56.101 9.53303 -19.5816
1 554 -52.3638 7.97022 -18.2682
1 231 -52.3198 8.3768 -21.2517
1 589 -50.9311 9.66998 -19.5344
1 556 -49.6899 7.83631 -18.2769
1 233 -49.8124 8.53508 -21.265
1 235 -47.3155 8.39865 -21.3298
1 558 -47.165 7.81708 -18.3425
1 591 -48.3228 9.63213 -19.4863
1 237 -44.6342 8.51892 -21.2949
1 560 -44.6563 7.95571 -18.3307
1 593 -45.8941 9.56307 -19.5705
1 595 -43.192 9.56657 -19.5769
1 239 -41.9613 8.42509 -21.4332
1 562 -41.9954 7.88378 -18.3774
1 564 -39.4774 7.738 -18.3387
1 241 -39.4375 8.3263 -21.2742
1 597 -40.6289 9.58022 -19.6124
1 243 -36.8932 8.27537 -21.2987
1 566 -36.8432 7.77407 -18.3983
1 599 -38.2014 9.46721 -19.6067
1 601 -35.6523 9.50309 -19.6476
1 568 -34.3969 7.75557 -18.36
1 245 -34.4169 8.32298 -21.2812
1 603 -33.0773 9.45114 -19.5029
1 247 -31.8058 8.28197 -21.2859
1 570 -31.9186 7.79238 -18.3694
1 572 -29.2503 7.7125 -18.4391
1 249 -29.2482 8.41751 -21.4166
1 605 -30.5645 9.51644 -19.6625
1 574 -26.6952 7.82113 -18.4702
1 251 -26.656 8.30402 -21.306
1 607 -27.9708 9.40836 -19.6341
1 609 -25.3551 9.57009 -19.6919
1 255 -21.6376 8.36396 -21.3049
1 578 -21.6325 7.82187 -18.4394
1 576 -24.1315 7.71321 -18.4718
1 253 -24.0401 8.25171 -21.2334
1 611 -22.8546 9.53724 -19.5268
1 257 -62.5764 11.0672 -20.623
1 615 -61.1418 12.574 -19.0268
1 291 -62.4643 14.3185 -20.3437
1 2126 -63.5917 19.6029 -8.57214
1 261 -57.4488 11.2502 -20.6868
1 259 -59.9849 11.3002 -20.6999
1 617 -58.5744 12.4216 -19.077
1 295 -57.3506 14.3086 -20.2995
1 293 -59.8736 14.2202 -20.1801
1 263 -54.8746 11.2838 -20.7032
1 621 -53.6141 12.5788 -19.0972
1 619 -56.0559 12.5778 -19.0069
1 297 -54.8307 14.2502 -20.3028
1 267 -49.6806 11.288 -20.6989
1 265 -52.3273 11.1395 -20.6063
1 623 -51.0504 12.4751 -19.0823
1 299 -52.27 14.1455 -20.2716
1 301 -49.8678 14.1667 -20.2008
1 269 -47.1049 11.4132 -20.817
1 625 -48.3652 12.5304 -19.1229
1 303 -47.2174 14.1759 -20.4358
1 271 -44.4604 11.1452 -20.6449
1 627 -45.7167 12.645 -19.1694
1 629 -43.2302 12.6084 -19.0321
1 305 -44.5696 14.4391 -20.4641
1 273 -41.9878 11.3924 -20.7388
1 275 -39.3234 11.214 -20.8736
1 631 -40.854 12.4645 -19.086
1 309 -39.4241 14.162 -20.3886
1 307 -41.9999 14.3304 -20.3911
1 277 -36.8983 11.2362 -20.8087
1 633 -38.2199 12.5314 -19.2341
1 635 -35.6391 12.457 -19.1701
1 311 -36.9036 14.2063 -20.4319
1 279 -34.2931 11.1796 -20.7652
1 637 -33.0623 12.5019 -19.1621
1 313 -34.4605 14.1887 -20.5018
1 281 -31.8878 11.1914 -20.757
1 315 -31.6987 14.1924 -20.3182
1 283 -29.293 11.3661 -20.7604
1 639 -30.5226 12.3891 -19.0689
1 317 -29.2786 14.3065 -20.37
1 285 -26.6843 11.1092 -20.8315
1 641 -27.8883 12.3451 -19.0492
1 643 -25.5117 12.3654 -19.0132
1 319 -26.7122 14.1912 -20.1807
1 289 -21.7284 11.296 -20.7789
1 287 -24.1739 11.2491 -20.8732
1 645 -22.9073 12.5932 -19.1046
1 323 -21.6285 14.2893 -20.3793
1 321 -24.271 14.0423 -20.3793
1 649 -61.2314 15.4972 -18.6254
1 4266 -23.0627 -0.0577365 -0.08003
1 651 -58.6195 15.5847 -18.4911
1 655 -53.5434 15.5313 -18.5467
1 653 -56.0936 15.514 -18.4829
1 657 -51.0317 15.4902 -18.4512
1 691 -51.0638 18.2908 -18.0994
1 659 -48.5729 15.6338 -18.5216
1 663 -43.2236 15.5688 -18.6004
1 661 -45.8836 15.4739 -18.5593
1 695 -45.7922 18.3467 -18.043
1 665 -40.7003 15.488 -18.6307
1 699 -40.6877 18.2832 -17.871
1 667 -38.2488 15.4879 -18.5177
1 669 -35.6208 15.5035 -18.7059
1 701 -38.2469 18.1231 -18.1715
1 703 -35.7271 18.2377 -18.0256
1 671 -33.1115 15.46 -18.6889
1 705 -33.1841 18.2852 -18.2879
1 673 -30.461 15.5109 -18.5418
1 707 -30.5091 18.0992 -18.4615
1 675 -28.0144 15.3438 -18.501
1 677 -25.4581 15.4723 -18.4314
1 711 -25.4953 18.2373 -17.9628
1 709 -27.9429 18.1421 -18.3558
1 679 -22.9625 15.4451 -18.6618
1 713 -23.0109 18.3355 -18.1302
1 683 -61.3845 18.2447 -18.1086
1 693 -48.5278 18.3772 -18.0258
1 1686 -61.147 -18.3575 -15.5213
1 1688 -58.5973 -18.4036 -15.4143
1 1692 -53.5794 -18.4916 -15.4546
1 1690 -56.0902 -18.4539 -15.5364
1 1694 -51.0408 -18.4779 -15.5676
1 1696 -48.4771 -18.3133 -15.5163
1 1698 -45.9133 -18.654 -15.5509
1 1700 -43.2856 -18.6177 -15.6121
1 1702 -40.8433 -18.4882 -15.5086
1 1704 -38.3072 -18.6859 -15.6564
1 1706 -35.6368 -18.4238 -15.4132
1 1708 -33.2021 -18.4958 -15.5365
1 1710 -30.5301 -18.5652 -15.6628
1 1712 -27.9738 -18.5612 -15.5789
1 1714 -25.4441 -18.4402 -15.54
1 1716 -22.8856 -18.4486 -15.5443
1 1210 -61.1026 -14.8611 -17.8544
1 1175 -62.4924 -16.4697 -16.5245
1 1720 -61.1035 -15.4951 -14.688
1 1212 -58.5517 -14.9789 -17.9012
1 1179 -57.3258 -16.5833 -16.5891
1 1177 -59.9304 -16.5197 -16.6062
1 1722 -58.5419 -15.418 -14.8598
1 1214 -56.0955 -14.8569 -17.8497
1 1216 -53.4995 -14.9838 -17.8132
1 1181 -54.8122 -16.6405 -16.6475
1 1724 -56.0605 -15.4007 -14.9599
1 1726 -53.5781 -15.3905 -15.0151
1 1218 -51.0391 -14.9139 -17.8701
1 1183 -52.3263 -16.6006 -16.6025
1 1728 -51.0049 -15.4883 -14.9931
1 1185 -49.7771 -16.6852 -16.7729
1 1186 -48.5575 -18.3387 -18.2613
1 1220 -48.5436 -15.0255 -17.96
1 1187 -47.1663 -16.7063 -16.7335
1 1730 -48.4192 -15.5312 -15.0128
1 1222 -45.9297 -14.8278 -17.7553
1 1189 -44.7673 -16.7549 -16.6235
1 1224 -43.388 -14.9808 -17.7151
1 1732 -45.8616 -15.4692 -14.8725
1 1734 -43.4393 -15.4963 -15.04
1 1226 -40.8735 -14.9161 -17.9007
1 1193 -39.607 -16.6242 -16.5765
1 1191 -42.0936 -16.6787 -16.8289
1 1736 -40.9795 -15.5322 -14.8443
1 1195 -37.0952 -16.7857 -16.6987
1 1228 -38.2407 -15.0654 -17.9006
1 1230 -35.7821 -15.0301 -17.8486
1 1740 -35.7378 -15.5347 -14.9515
1 1738 -38.3408 -15.5796 -14.9281
1 1232 -33.2096 -15.0556 -17.8974
1 1197 -34.4628 -16.6265 -16.6237
1 1742 -32.9906 -15.6842 -15.0
1 1199 -31.8162 -16.8115 -16.659
1 1234 -30.6831 -14.939 -17.8632
1 1201 -29.2308 -16.6523 -16.8102
1 1744 -30.4555 -15.581 -15.0155
1 1236 -27.9626 -15.0105 -17.8863
1 1238 -25.4334 -14.8959 -17.9219
1 1203 -26.5796 -16.7275 -16.7162
1 1746 -27.9397 -15.5348 -14.9906
1 1748 -25.4309 -15.5717 -14.8843
1 1240 -22.8736 -15.025 -17.9543
1 1207 -21.6567 -16.62 -16.6815
1 1205 -24.0839 -16.6958 -16.8008
1 1750 -22.8815 -15.5966 -14.9433
1 1209 -62.4292 -13.6672 -16.1388
1 1244 -61.1358 -11.8789 -17.3383
1 3346 -25.4865 24.5604 -1.72245
1 1213 -57.3492 -13.699 -16.2353
1 1211 -59.9861 -13.7117 -16.0679
1 1246 -58.745 -11.9384 -17.3882
1 1215 -54.7868 -13.7054 -16.2876
1 1248 -56.1045 -11.9356 -17.4491
1 1250 -53.5097 -12.0685 -17.3469
1 1217 -52.2931 -13.7669 -16.2137
1 1252 -50.9869 -12.0793 -17.2619
1 1219 -49.6783 -13.7791 -16.1828
1 1221 -47.2563 -13.7842 -16.1438
1 1254 -48.5574 -12.0632 -17.3703
1 1256 -45.8527 -11.9731 -17.3273
1 1223 -44.5861 -13.6808 -16.1394
1 1258 -43.3566 -11.94 -17.3141
1 1257 -44.6759 -10.7411 -15.5298
1 1227 -39.7002 -13.8104 -16.0461
1 1225 -42.0775 -13.7748 -16.106
1 1260 -40.7696 -12.0278 -17.2933
1 1229 -37.0669 -13.8341 -16.1778
1 1262 -38.3556 -12.2499 -17.3566
1 1264 -35.7039 -12.1747 -17.3603
1 1231 -34.3488 -13.9216 -16.1867
1 1266 -33.1357 -12.1273 -17.3895
1 1233 -31.8343 -13.7425 -16.1948
1 1235 -29.2129 -13.8286 -16.2495
1 1268 -30.4103 -12.0603 -17.3398
1 1237 -26.6054 -13.89 -16.1397
1 1270 -27.9278 -12.0646 -17.4577
1 1272 -25.3976 -12.2106 -17.5534
1 1271 -26.691 -10.8532 -15.6674
1 1239 -24.1342 -13.8857 -16.2593
1 1241 -21.7748 -13.7739 -16.2261
1 1274 -22.8886 -12.1258 -17.2927
1 1243 -62.4714 -10.7894 -15.5213
1 801 -62.4757 -7.17527 -18.044
1 1278 -61.2726 -8.97853 -16.8107
1 1277 -62.4989 -7.84481 -15.0234
1 2733 -26.7034 23.1919 -3.45588
1 1245 -59.9937 -10.8117 -15.5882
1 1247 -57.4694 -10.8454 -15.6401
1 803 -59.8106 -7.37015 -18.0353
1 805 -57.2833 -7.46105 -18.079
1 1280 -58.7178 -9.08072 -16.8394
1 1279 -59.8803 -7.81725 -15.0126
1 1281 -57.3694 -7.8206 -15.0297
1 1249 -54.7788 -10.8661 -15.6961
1 807 -54.8048 -7.35735 -17.9947
1 1282 -56.1893 -9.0776 -16.8094
1 1284 -53.558 -9.05572 -16.7237
1 1283 -54.8794 -7.83074 -15.0795
1 811 -49.699 -7.45754 -17.9276
1 1251 -52.2805 -10.8459 -15.4805
1 1253 -49.6058 -10.8436 -15.6566
1 1286 -51.062 -9.1655 -16.8482
1 1285 -52.2688 -7.97094 -15.0366
1 1287 -49.689 -7.86399 -15.0076