ITEM: TIMESTEP
0
ITEM: NUMBER OF ATOMS
24050
ITEM: BOX BOUNDS pp pp pp
-70.7443452717 70.7443452717
-53.93918023 53.93918023
-53.6233749296 53.6233749296
ITEM: ATOMS type id x y z
1 88 -68.0045 -7.87625 -23.0256
1 86 -70.742 -8.50426 -22.8335
1 90 -65.0814 -8.11964 -23.1917
1 70 -66.5219 -9.69383 -21.6241
1 71 -63.6424 -9.68448 -21.6339
1 92 -62.2556 -8.31616 -23.2944
1 72 -60.9199 -9.86864 -21.6307
1 94 -59.4039 -8.63114 -23.176
1 96 -56.5367 -8.46339 -23.3302
1 73 -57.9156 -10.053 -21.6104
1 98 -53.7115 -8.26589 -23.3399
1 74 -55.1013 -9.71507 -21.5983
1 97 -55.2538 -7.1955 -21.4645
1 100 -51.1099 -8.19994 -23.2228
1 76 -49.842 -9.76457 -21.5628
1 75 -52.4644 -9.888 -21.8404
1 102 -48.2948 -8.37141 -22.8452
1 77 -46.8062 -9.98545 -21.6241
1 104 -45.4161 -8.22662 -23.0433
1 106 -42.3414 -8.4024 -23.2317
1 78 -43.7953 -9.85868 -21.6919
1 108 -39.6728 -8.54326 -23.0893
1 79 -41.0495 -9.93595 -21.7125
1 80 -38.2029 -10.005 -21.7442
1 110 -36.859 -8.41964 -23.2644
1 81 -35.3274 -9.98316 -21.8318
1 112 -33.8767 -8.26028 -23.1271
1 114 -31.1117 -8.26644 -23.1559
1 82 -32.4729 -9.93205 -21.6903
1 116 -28.2123 -8.32762 -23.1355
1 83 -29.7525 -9.90419 -21.8723
1 118 -25.4322 -8.13008 -23.4011
1 84 -26.8916 -9.9455 -21.8033
1 85 -24.1805 -9.709 -21.7048
1 1 -69.3277 -3.90745 -24.5339
1 122 -67.9904 -5.38581 -23.0534
1 121 -69.382 -4.19266 -21.5178
1 91 -63.6023 -6.74767 -21.6512
1 2 -66.5848 -3.85464 -24.5499
1 3 -63.7506 -3.78481 -24.4219
1 124 -65.0772 -5.38838 -22.918
1 125 -63.8068 -4.10963 -21.5921
1 123 -66.6645 -4.12977 -21.641
1 93 -60.8846 -7.01067 -21.7374
1 4 -60.8005 -4.0563 -24.4291
1 126 -62.2182 -5.52296 -23.2568
1 127 -60.8796 -4.23532 -21.6812
1 95 -57.9794 -7.1817 -21.6069
1 5 -57.89 -4.05742 -24.4612
1 128 -59.2804 -5.6165 -23.1978
1 130 -56.4681 -5.64036 -22.9776
1 129 -57.9852 -4.27116 -21.5553
1 6 -55.1068 -3.98557 -24.6073
1 132 -53.9362 -5.68997 -22.9374
1 131 -55.2085 -4.18707 -21.458
1 7 -52.2024 -3.97957 -24.6085
1 8 -49.5937 -3.92672 -24.5907
1 134 -50.8975 -5.59754 -23.3368
1 135 -49.6315 -4.16589 -21.6019
1 99 -52.5365 -7.01997 -21.5207
1 133 -52.4208 -4.35093 -21.7932
1 9 -46.8164 -4.03984 -24.5001
1 136 -48.2395 -5.57632 -22.9603
1 137 -46.7759 -4.16413 -21.579
1 138 -45.5967 -5.77799 -23.0272
1 105 -43.9936 -7.02616 -21.4953
1 10 -44.1878 -4.19187 -24.4307
1 140 -42.5327 -5.73058 -23.0892
1 139 -44.0755 -4.29132 -21.5874
1 11 -41.3397 -4.28757 -24.6368
1 107 -40.9556 -7.02917 -21.6599
1 109 -38.2859 -7.15859 -21.5848
1 12 -38.2517 -4.13979 -24.6555
1 142 -39.6317 -5.69629 -23.3457
1 141 -41.0607 -4.39734 -21.6741
1 143 -38.2495 -4.26598 -21.5751
1 13 -35.6138 -4.18187 -24.563
1 144 -36.8797 -5.69023 -23.0703
1 111 -35.5447 -7.11174 -21.5739
1 145 -35.3859 -4.29241 -21.4818
1 113 -32.5661 -7.02574 -21.4881
1 14 -32.7156 -4.03244 -24.4932
1 146 -33.9665 -5.66016 -23.0103
1 148 -31.2164 -5.51698 -23.1727
1 147 -32.524 -4.18959 -21.5089
1 115 -29.6838 -7.01546 -21.5293
1 15 -29.8708 -3.7663 -24.6563
1 150 -28.3988 -5.62026 -23.1682
1 149 -29.7216 -4.1896 -21.5637
1 16 -27.0701 -4.13122 -24.6058
1 17 -24.0924 -4.02765 -24.547
1 152 -25.4983 -5.49739 -23.1065
1 119 -24.0677 -6.98484 -21.4897
1 151 -26.8986 -4.30177 -21.4746
1 153 -23.8896 -4.24993 -21.5855
1 117 -26.8769 -7.09745 -21.6127
1 18 -69.442 -1.0032 -24.4028
1 156 -68.06 -2.53841 -23.0408
1 155 -69.4501 -1.21137 -21.5217
1 154 -70.7316 -2.65469 -22.8743
1 19 -66.6535 -0.955472 -24.5179
1 20 -63.6492 -1.25535 -24.6314
1 158 -65.238 -2.55793 -22.8984
1 157 -66.7135 -1.13351 -21.4824
1 159 -63.8533 -1.25392 -21.5332
1 21 -60.91 -1.18658 -24.5219
1 160 -62.3113 -2.6661 -23.0022
1 161 -60.867 -1.38058 -21.6264
1 22 -57.9198 -1.20524 -24.4058
1 162 -59.3019 -2.74881 -23.0134
1 164 -56.4985 -2.72122 -22.9503
1 163 -58.085 -1.30203 -21.6308
1 23 -55.1177 -1.22272 -24.3651
1 166 -53.6378 -2.78832 -22.9824
1 165 -55.1772 -1.27907 -21.6104
1 25 -49.4576 -1.062 -24.6411
1 24 -52.2939 -1.24006 -24.5791
1 168 -50.818 -2.61663 -23.003
1 167 -52.3327 -1.21611 -21.5551
1 169 -49.5286 -1.26853 -21.4733
1 26 -46.8454 -1.1677 -24.5966
1 170 -48.151 -2.70822 -22.9621
1 172 -45.481 -2.73297 -22.9451
1 171 -46.7305 -1.23184 -21.5773
1 27 -44.1062 -1.40938 -24.3975
1 174 -42.5826 -2.85036 -23.0095
1 173 -43.9095 -1.32785 -21.553
1 28 -41.3642 -1.53362 -24.6066
1 29 -38.2117 -1.43235 -24.7692
1 176 -39.6985 -2.71685 -23.1057
1 210 -39.6818 -0.0957758 -23.2314
1 177 -38.3296 -1.43274 -21.5806
1 175 -41.1463 -1.33948 -21.8368
1 30 -35.5678 -1.4042 -24.4274
1 178 -36.8846 -2.89651 -22.984
1 212 -36.8297 -0.103501 -23.0996
1 179 -35.4921 -1.36245 -21.5232
1 31 -32.5098 -1.2572 -24.4537
1 180 -34.1605 -2.67794 -22.8365
1 182 -31.224 -2.70889 -22.9108
1 214 -33.9658 -0.0348925 -22.8163
1 216 -31.0876 -0.0260217 -22.8132
1 32 -29.6936 -1.24778 -24.4957
1 184 -28.3531 -2.75162 -23.076
1 33 -27.0026 -1.40121 -24.5595
1 34 -24.2809 -1.22448 -24.6029
1 186 -25.5687 -2.82062 -23.0362
1 187 -24.2446 -1.35145 -21.5352
1 185 -26.8565 -1.36683 -21.7178
1 35 -69.486 1.52766 -24.342
1 190 -68.0423 0.340049 -22.9705
1 224 -67.8826 2.97263 -22.8624
1 189 -69.4239 1.65368 -21.4525
1 192 -65.194 0.24282 -22.7704
1 36 -66.4277 1.70771 -24.3231
1 37 -63.8792 1.47927 -24.3306
1 226 -65.088 3.00091 -22.7038
1 193 -63.6424 1.52737 -21.4724
1 38 -61.0335 1.50308 -24.5687
1 194 -62.3151 0.138756 -22.9746
1 228 -62.3143 2.98316 -22.9512
1 195 -60.8885 1.57764 -21.6449
1 198 -56.6655 0.1346 -22.8554
1 196 -59.5303 0.267501 -23.0227
1 39 -57.984 1.57541 -24.6681
1 230 -59.4992 3.02592 -23.2438
1 232 -56.7827 2.97877 -23.1043
1 197 -58.1578 1.5751 -21.6366
1 40 -55.2129 1.43068 -24.3486
1 200 -53.7714 0.0573483 -23.0489
1 234 -53.7641 2.967 -23.0502
1 199 -55.274 1.54616 -21.6304
1 41 -52.3538 1.56101 -24.4477
1 42 -49.6299 1.65698 -24.4838
1 202 -50.8334 0.160107 -22.9558
1 236 -51.0007 2.97269 -22.8506
1 201 -52.3851 1.48324 -21.566
1 204 -48.1559 0.278321 -23.0067
1 43 -46.7608 1.568 -24.5076
1 238 -48.2551 2.94414 -22.8553
1 205 -46.7204 1.45372 -21.5261
1 208 -42.5963 0.0728769 -23.0757
1 206 -45.3347 0.162206 -23.0068
1 44 -43.8672 1.60806 -24.697
1 240 -45.2281 2.83561 -22.9018
1 242 -42.5393 2.91162 -23.121
1 207 -43.8198 1.53017 -21.5826
1 45 -41.3418 1.32118 -24.7074
1 46 -38.3269 1.46252 -24.5698
1 244 -39.7011 2.73812 -23.0282
1 209 -41.1022 1.40989 -21.6696
1 211 -38.2194 1.3239 -21.5842
1 47 -35.2575 1.35803 -24.3043
1 246 -36.7384 2.75383 -22.8993
1 213 -35.4186 1.32555 -21.5393
1 48 -32.5634 1.44519 -24.4869
1 248 -33.9159 2.78008 -22.849
1 250 -31.1249 2.81833 -22.9111
1 215 -32.436 1.46861 -21.5031
1 218 -28.4197 0.0751797 -22.9961
1 49 -29.7575 1.52174 -24.5502
1 252 -28.4779 2.79342 -23.0339
1 217 -29.678 1.37188 -21.494
1 220 -25.5746 0.186184 -23.1604
1 50 -26.882 1.65781 -24.572
1 51 -24.0054 1.60874 -24.4792
1 254 -25.4948 2.89362 -22.9419
1 219 -26.9717 1.38893 -21.6153
1 221 -24.0625 1.3891 -21.7429
1 52 -69.4328 4.16846 -24.299
1 258 -68.1482 5.72054 -23.0124
1 53 -66.5241 4.42832 -24.2922
1 54 -64.0012 4.42152 -24.303
1 260 -65.3232 5.9388 -22.8637
1 227 -63.8137 4.48898 -21.4531
1 55 -61.0921 4.52125 -24.3527
1 262 -62.4153 5.97933 -22.904
1 229 -60.9659 4.25548 -21.5555
1 56 -58.1434 4.47383 -24.5998
1 264 -59.6065 5.84369 -22.9751
1 266 -56.68 5.8986 -23.1487
1 231 -58.2214 4.38951 -21.5231
1 265 -58.1763 7.17906 -21.5759
1 57 -55.1691 4.33145 -24.4971
1 268 -53.7949 5.78632 -22.9852
1 233 -55.3737 4.3927 -21.7312
1 58 -52.207 4.20523 -24.4951
1 59 -49.5749 4.37542 -24.2395
1 270 -51.0611 5.75187 -22.9146
1 235 -52.465 4.35177 -21.5358
1 237 -49.5667 4.46476 -21.4532
1 60 -46.7217 4.06078 -24.3938
1 272 -48.1176 5.72859 -22.9287
1 239 -46.6342 4.37365 -21.577
1 274 -45.2655 5.79825 -23.0357
1 61 -43.9961 4.41774 -24.4706
1 276 -42.4545 5.96929 -23.0784
1 241 -43.9611 4.50443 -21.494
1 62 -41.0726 4.33816 -24.557
1 278 -39.5575 5.87887 -23.2163
1 243 -40.9703 4.34654 -21.7792
1 245 -38.163 4.22793 -21.5865
1 277 -40.9592 7.17732 -21.5096
1 63 -38.0544 4.09083 -24.3974
1 64 -35.3267 4.16656 -24.2397
1 280 -36.7504 5.71263 -22.9112
1 279 -38.0758 7.17156 -21.5511
1 65 -32.6094 4.1677 -24.2397
1 282 -33.9085 5.65204 -22.8598
1 284 -31.1791 5.74679 -22.876
1 283 -32.4861 7.1116 -21.4924
1 66 -29.9059 4.19037 -24.5171
1 286 -28.4718 5.76182 -23.1606
1 251 -29.7692 4.29613 -21.5701
1 285 -29.6213 7.14939 -21.5503
1 67 -26.8308 4.25607 -24.535
1 68 -23.9121 4.42538 -24.6321
1 288 -25.4748 5.74843 -23.2113
1 253 -27.0544 4.37508 -21.7574
1 255 -24.1152 4.31369 -21.7773
1 289 -24.046 7.17341 -21.7142
1 292 -68.1174 8.33772 -22.9567
1 291 -69.1948 10.0215 -21.4522
1 290 -70.6732 8.56747 -22.8788
1 294 -65.2622 8.45648 -22.763
1 296 -62.3805 8.61706 -22.8225
1 297 -60.8735 10.1315 -21.5487
1 298 -59.3784 8.64963 -23.1021
1 300 -56.8065 8.46582 -23.1552
1 299 -58.0487 10.1669 -21.6165
1 302 -53.9645 8.52648 -23.0237
1 267 -55.3627 7.24057 -21.5288
1 301 -55.2335 10.1948 -21.5353
1 304 -51.0958 8.32678 -22.9325
1 303 -52.4366 10.1596 -21.6648
1 305 -49.5548 9.92969 -21.7905
1 306 -48.1308 8.22413 -23.2317
1 307 -46.6377 9.86128 -21.7068
1 275 -43.763 7.2053 -21.5151
1 308 -45.1571 8.55434 -22.9883
1 310 -42.4349 8.6668 -23.0775
1 312 -39.4126 8.42187 -23.1251
1 311 -40.9026 10.0425 -21.5406
1 313 -38.213 9.97844 -21.5864
1 314 -36.5587 8.45914 -23.0554
1 315 -35.2664 10.039 -21.6043
1 316 -33.9416 8.27782 -23.1426
1 318 -31.1405 8.36437 -23.1996
1 317 -32.4172 9.92039 -21.7449
1 320 -28.2236 8.47035 -23.331
1 319 -29.6449 9.82407 -21.7354
1 287 -26.9775 7.19811 -21.6934
1 322 -25.4812 8.52072 -23.1175
1 321 -26.8099 9.85518 -21.4529
1 323 -24.0987 9.87724 -21.5725
1 324 -69.3924 -15.4265 -18.5459
1 325 -66.5633 -15.6562 -18.7055
1 326 -63.7889 -15.6097 -18.9172
1 327 -60.8474 -15.5955 -18.8328
1 328 -58.139 -15.5955 -18.7335
1 329 -55.3363 -15.63 -18.5842
1 330 -52.4311 -15.7125 -18.5891
1 331 -49.5516 -15.6265 -18.7217
1 332 -46.922 -15.4068 -18.8312
1 333 -43.7116 -15.2999 -18.6784
1 334 -40.9926 -15.4658 -18.8107
1 335 -38.2208 -15.7809 -18.9208
1 336 -35.4823 -15.5664 -18.7321
1 337 -32.6421 -15.6112 -18.6977
1 338 -29.5501 -15.7028 -18.9292
1 339 -26.7674 -15.5699 -18.7706
1 340 -24.005 -15.4573 -18.6835
1 343 -67.8005 -13.9143 -20.0915
1 342 -69.3331 -12.6974 -18.4705
1 377 -67.903 -11.3389 -20.2876
1 341 -70.7315 -14.1078 -20.1885
1 375 -70.676 -11.4384 -20.0921
1 344 -66.5342 -12.6557 -18.529
1 345 -65.2528 -14.0523 -20.2983
1 346 -63.7634 -12.7748 -18.7516
1 379 -65.1298 -11.4785 -20.2684
1 347 -62.4044 -14.1238 -20.2511
1 348 -60.9586 -12.7914 -18.634
1 381 -62.3879 -11.4987 -20.0911
1 349 -59.5093 -13.9852 -20.3263
1 350 -58.1837 -12.6711 -18.6843
1 351 -56.6612 -14.0274 -20.1117
1 383 -59.5702 -11.2763 -20.1685
1 385 -56.5895 -11.3828 -20.193
1 353 -54.0526 -14.1518 -20.1566
1 352 -55.2493 -12.7745 -18.4635
1 387 -53.9457 -11.4331 -20.1661
1 355 -51.3573 -14.222 -20.2535
1 354 -52.4855 -12.8604 -18.6539
1 356 -49.6824 -12.7572 -18.7262
1 389 -51.1307 -11.3301 -20.1372
1 357 -48.418 -14.1478 -20.3903
1 358 -46.7295 -12.6921 -18.6685
1 391 -48.1827 -11.5246 -20.2753
1 359 -45.3261 -13.9443 -20.1688
1 393 -45.2242 -11.4857 -20.3189
1 360 -43.8487 -12.7099 -18.6533
1 361 -42.3511 -13.9451 -20.2534
1 395 -42.5193 -11.4134 -20.2864
1 363 -39.5614 -14.0804 -20.2651
1 362 -40.9914 -12.7565 -18.5848
1 364 -38.2599 -12.6454 -18.7207
1 397 -39.65 -11.4429 -20.3223
1 365 -36.9445 -14.1428 -20.4568
1 366 -35.564 -12.7948 -18.6242
1 399 -36.8045 -11.3475 -20.2805
1 367 -34.1638 -14.0563 -20.3329
1 368 -32.4564 -12.8205 -18.7248
1 369 -31.1363 -14.2457 -20.1897
1 401 -34.0857 -11.4263 -20.3792
1 403 -30.9409 -11.4383 -20.3542
1 371 -28.1985 -14.0538 -20.3285
1 370 -29.595 -12.7898 -18.6998
1 405 -28.1644 -11.3845 -20.3153
1 372 -26.7995 -12.6722 -18.7585
1 373 -25.462 -14.105 -20.1879
1 374 -24.0474 -12.8291 -18.5724
1 407 -25.4279 -11.3041 -20.2241
1 69 -69.304 -9.75841 -21.4445
1 376 -69.4339 -9.90818 -18.5618
1 411 -67.899 -8.38804 -20.0668
1 378 -66.4922 -10.0071 -18.7025
1 380 -63.7521 -9.90027 -18.7691
1 413 -65.0895 -8.3258 -20.2463
1 382 -61.0074 -9.82532 -18.7048
1 415 -62.2213 -8.49295 -20.2688
1 384 -58.0508 -10.0937 -18.8007
1 417 -59.4934 -8.46456 -20.1806
1 419 -56.7522 -8.54682 -20.1137
1 386 -55.1521 -9.87367 -18.5392
1 421 -53.81 -8.46962 -20.0921
1 388 -52.5386 -9.93699 -18.7394
1 390 -49.5991 -9.97431 -18.7268
1 423 -51.0981 -8.40746 -20.1748
1 392 -46.7438 -9.99656 -18.8601
1 425 -48.1547 -8.60562 -20.1218
1 394 -43.7938 -9.91563 -18.7624
1 427 -45.3032 -8.57855 -20.1213
1 429 -42.4504 -8.50111 -20.1879
1 396 -40.9907 -9.99608 -18.8218
1 398 -38.1526 -9.90232 -18.8433
1 431 -39.6759 -8.6 -20.3403
1 400 -35.3875 -10.0195 -18.8312
1 433 -36.7456 -8.52762 -20.2446
1 402 -32.5679 -10.0647 -18.9238
1 435 -33.9942 -8.57977 -20.3058
1 437 -31.0958 -8.51643 -20.1615
1 436 -32.5693 -7.21778 -18.6554
1 404 -29.5906 -10.0412 -18.7546
1 439 -28.3049 -8.48611 -20.1553
1 406 -26.8327 -9.98407 -18.7424
1 408 -23.985 -9.89574 -18.7679
1 441 -25.4295 -8.44056 -20.131
1 87 -69.4315 -6.95495 -21.2907
1 410 -69.3437 -6.9298 -18.6275
1 444 -69.4074 -4.11713 -18.5131
1 445 -67.9149 -5.46729 -19.8926
1 89 -66.5163 -6.71389 -21.423
1 412 -66.4819 -7.08817 -18.5937
1 414 -63.6479 -7.00543 -18.7862
1 446 -66.5089 -4.12975 -18.5463
1 447 -65.0955 -5.47832 -20.0714
1 448 -63.8432 -4.06649 -18.6741
1 416 -60.8586 -7.05612 -18.8017
1 449 -62.2703 -5.44535 -20.1436
1 450 -60.8452 -4.24741 -18.6106
1 418 -58.015 -7.01498 -18.6611
1 451 -59.4648 -5.64402 -20.1654
1 452 -57.9831 -4.33197 -18.6059
1 453 -56.6829 -5.67061 -20.0611
1 420 -55.255 -7.00801 -18.6349
1 454 -55.2646 -4.19128 -18.7012
1 455 -53.9127 -5.62128 -20.0579
1 101 -49.7441 -6.95205 -21.4404
1 422 -52.3627 -7.05503 -18.7274
1 424 -49.6411 -7.11313 -18.7762
1 456 -52.5015 -4.25252 -18.7871
1 457 -51.0602 -5.48929 -20.194
1 458 -49.5354 -4.20317 -18.6923
1 103 -46.8316 -7.01549 -21.4158
1 426 -46.7692 -7.11403 -18.7868
1 459 -48.2206 -5.5269 -20.1145
1 460 -46.6865 -4.18871 -18.6493
1 461 -45.4413 -5.51038 -20.0738
1 428 -43.8939 -7.15123 -18.7618
1 462 -43.847 -4.1749 -18.7388
1 463 -42.6104 -5.73627 -20.1817
1 430 -40.9943 -7.13518 -18.806
1 432 -38.2309 -7.1581 -18.7414
1 464 -41.1265 -4.32 -18.8007
1 465 -39.6137 -5.73633 -20.1469
1 466 -38.3753 -4.23731 -18.8114
1 434 -35.4245 -7.12816 -18.7592
1 467 -36.7924 -5.65233 -20.0611
1 468 -35.3827 -4.20569 -18.7532
1 469 -33.9208 -5.73776 -20.1197
1 470 -32.5815 -4.12723 -18.636
1 471 -31.2119 -5.64916 -20.1156
1 438 -29.7335 -7.19157 -18.5232
1 472 -29.7337 -4.32281 -18.733
1 473 -28.3854 -5.77543 -20.1511
1 440 -26.8223 -7.06013 -18.749
1 442 -23.9717 -7.10697 -18.8117
1 474 -26.9092 -4.31682 -18.5939
1 475 -25.4158 -5.54409 -20.1241
1 476 -23.9743 -4.19098 -18.7921
1 478 -69.4696 -1.27601 -18.5646
1 479 -68.0673 -2.52731 -20.1073
1 477 -70.7368 -2.72334 -20.005
1 480 -66.6897 -1.35179 -18.6855
1 481 -65.297 -2.68557 -20.0724
1 482 -63.7491 -1.45525 -18.7163
1 483 -62.3158 -2.8953 -20.1948
1 484 -60.8393 -1.42721 -18.7395
1 517 -62.2393 -0.0215538 -20.1978
1 485 -59.3732 -2.80499 -20.1775
1 486 -58.1698 -1.31633 -18.6867
1 487 -56.7102 -2.77556 -20.1968
1 519 -59.5574 -0.0202222 -20.126
1 488 -55.2773 -1.33546 -18.7399
1 489 -53.865 -2.79151 -20.2175
1 490 -52.383 -1.30413 -18.6574
1 491 -51.1561 -2.90525 -20.1742
1 492 -49.543 -1.44485 -18.8859
1 493 -47.992 -2.84993 -20.2069
1 494 -46.8107 -1.48801 -18.5741
1 495 -45.3618 -2.76825 -20.049
1 496 -43.8641 -1.39467 -18.71
1 497 -42.4286 -2.81147 -20.1818
1 498 -41.2144 -1.30941 -18.7479
1 499 -39.7922 -2.78075 -20.2064
1 500 -38.3295 -1.36837 -18.6636
1 501 -36.7865 -2.79863 -20.1857
1 502 -35.4405 -1.23369 -18.6668
1 181 -32.5307 -1.33528 -21.4231
1 503 -33.9561 -2.74803 -20.0709
1 504 -32.6024 -1.20612 -18.6255
1 505 -31.0887 -2.74596 -19.9896
1 183 -29.6445 -1.40583 -21.4397
1 506 -29.6348 -1.2189 -18.5871
1 507 -28.2842 -2.84048 -20.0668
1 541 -28.1355 -0.0494619 -20.1438
1 508 -26.8313 -1.28119 -18.6697
1 509 -25.5919 -2.75632 -20.1139
1 510 -24.0579 -1.36221 -18.7673
1 513 -68.091 0.171481 -19.9494
1 512 -69.52 1.52484 -18.573
1 547 -67.9989 2.90099 -19.8688
1 515 -65.1472 0.14387 -19.8981
1 191 -66.6078 1.5165 -21.2653
1 514 -66.5087 1.41235 -18.4585
1 516 -63.6471 1.36901 -18.6645
1 549 -65.082 2.94258 -19.9112
1 518 -60.9385 1.45801 -18.7381
1 551 -62.3568 2.9315 -20.0517
1 521 -56.6544 0.0896497 -20.1639
1 520 -58.178 1.40529 -18.6823
1 553 -59.5398 2.8465 -20.1347
1 555 -56.699 2.8245 -20.1532
1 523 -53.8436 0.0210509 -20.1896
1 522 -55.2433 1.36379 -18.8303
1 557 -53.8852 2.95507 -20.2102
1 203 -49.5233 1.4063 -21.419
1 525 -51.0137 0.0568598 -20.0264
1 524 -52.3179 1.52592 -18.6453
1 526 -49.5618 1.52281 -18.5873
1 559 -50.9679 2.91552 -20.0635
1 527 -48.1331 0.0638288 -19.9774
1 528 -46.7616 1.48532 -18.5926
1 561 -48.1341 2.95642 -20.0666
1 531 -42.5402 0.161656 -20.1203
1 563 -45.2684 2.85152 -20.2273
1 529 -45.2534 0.0543679 -20.0296
1 530 -43.7675 1.52729 -18.659
1 565 -42.5131 2.94772 -20.2975
1 533 -39.7993 0.0764377 -20.1833
1 532 -41.0165 1.57111 -18.8401
1 534 -38.3369 1.44637 -18.7298
1 567 -39.6765 2.88353 -20.3469
1 535 -36.851 0.0140387 -20.072
1 536 -35.388 1.46958 -18.6646
1 569 -36.8417 2.79758 -20.1711
1 537 -33.9299 0.105528 -20.0514
1 539 -31.0966 0.087156 -19.9493
1 538 -32.5492 1.56046 -18.6097
1 571 -33.9216 2.77333 -20.0601
1 573 -31.0633 2.83061 -19.9938
1 540 -29.5918 1.51836 -18.637
1 575 -28.262 2.9229 -20.1392
1 543 -25.5669 0.117464 -20.24
1 542 -26.8346 1.5738 -18.6324
1 544 -24.0366 1.36174 -18.7301
1 577 -25.4641 2.90076 -20.3305
1 223 -69.3921 4.33784 -21.3775
1 257 -69.3991 7.10219 -21.2999
1 546 -69.3408 4.35821 -18.4667
1 581 -67.9207 5.7384 -19.8819
1 225 -66.4669 4.33078 -21.3117
1 259 -66.6849 7.11888 -21.2226
1 261 -63.8064 7.12868 -21.2389
1 548 -66.4827 4.26852 -18.4695
1 550 -63.6803 4.30139 -18.6012
1 583 -65.2668 5.71735 -19.8633
1 552 -60.9434 4.33547 -18.5392
1 585 -62.3565 5.74313 -20.0014
1 263 -60.9774 7.14374 -21.4273
1 554 -58.1496 4.30871 -18.6929
1 587 -59.606 5.75481 -20.0743
1 589 -56.7875 5.76566 -20.1654
1 556 -55.4139 4.22278 -18.7581
1 591 -53.9778 5.67299 -20.069
1 590 -55.4158 7.17017 -18.7736
1 558 -52.4975 4.36549 -18.6561
1 560 -49.5509 4.36369 -18.5794
1 593 -51.0243 5.76283 -20.0194
1 271 -49.6072 7.09523 -21.3603
1 562 -46.7027 4.38647 -18.7135
1 595 -48.0796 5.79898 -19.9428
1 596 -46.7629 7.14828 -18.5344
1 597 -45.3237 5.84513 -20.1493
1 564 -43.7602 4.31768 -18.7632
1 599 -42.3248 5.69438 -20.206
1 598 -43.8317 7.17934 -18.6676
1 566 -40.9703 4.2786 -18.8064
1 568 -38.2652 4.27593 -18.6869
1 601 -39.4948 5.75186 -20.2924
1 600 -40.9437 7.10609 -18.5822
1 602 -38.1423 7.0906 -18.6809
1 247 -35.3234 4.22287 -21.4227
1 281 -35.3587 7.10337 -21.4308
1 570 -35.4103 4.20646 -18.7361
1 603 -36.8275 5.58995 -20.0421
1 604 -35.4276 7.1478 -18.8059
1 249 -32.4852 4.25889 -21.3345
1 572 -32.5202 4.2926 -18.7551
1 605 -33.9983 5.80026 -20.0572
1 607 -31.0432 5.73633 -20.0272
1 606 -32.5707 7.16473 -18.6699
1 574 -29.6047 4.20355 -18.6776
1 609 -28.246 5.82854 -20.1842
1 608 -29.7292 7.04191 -18.6728
1 576 -26.8326 4.38822 -18.7168
1 578 -24.1159 4.41012 -18.8976
1 611 -25.5203 5.82316 -20.3278
1 610 -26.8119 7.17894 -18.7466
1 612 -24.0349 7.1773 -18.7764
1 580 -69.4824 7.2341 -18.5287
1 614 -69.3446 10.1849 -18.5103
1 615 -68.0857 8.59748 -19.7999
1 613 -70.6919 8.70238 -20.0195
1 582 -66.4978 7.2194 -18.4513
1 293 -66.6425 9.99948 -21.4295
1 295 -63.8196 10.0264 -21.4374
1 584 -63.7773 7.26394 -18.5959
1 616 -66.7044 10.2206 -18.5831
1 617 -65.2352 8.65517 -19.8971
1 618 -63.7511 10.1136 -18.5609
1 586 -60.9134 7.3035 -18.4987
1 619 -62.2052 8.72703 -20.0324
1 620 -60.7538 10.1255 -18.7284
1 588 -58.0743 7.23177 -18.672
1 621 -59.5025 8.69944 -20.1416
1 622 -58.147 10.0434 -18.6124
1 623 -56.6841 8.74023 -20.0452
1 624 -55.1455 10.202 -18.7405
1 625 -53.9557 8.67158 -20.1075
1 592 -52.5964 7.25203 -18.6897
1 269 -52.6004 7.19224 -21.4273
1 594 -49.4742 7.23004 -18.4966
1 626 -52.4085 10.1691 -18.722
1 627 -51.0175 8.57815 -20.0446
1 628 -49.4987 9.98887 -18.6969
1 273 -46.7677 7.26158 -21.4209
1 629 -48.0703 8.57174 -20.0491
1 630 -46.6779 9.95575 -18.6153
1 309 -43.7384 9.97217 -21.3986
1 631 -45.1826 8.6056 -20.0868
1 632 -43.6329 10.0201 -18.6993
1 633 -42.2742 8.53521 -20.1479
1 634 -40.9863 10.0068 -18.6097
1 635 -39.4543 8.60681 -20.0929
1 636 -38.1161 9.90457 -18.6365
1 637 -36.7459 8.56628 -20.1407
1 638 -35.2847 9.99406 -18.762
1 639 -33.8154 8.62212 -20.0612
1 640 -32.5052 10.1226 -18.7775
1 641 -31.0551 8.55747 -20.2117
1 642 -29.7469 10.0156 -18.6247
1 643 -28.3197 8.66286 -19.9493
1 644 -26.8357 9.97594 -18.4792
1 645 -25.4792 8.47552 -20.1227
1 646 -24.0728 9.93284 -18.6088
1 648 -69.3281 13.0466 -18.4889
1 649 -67.9678 11.6051 -20.0724
1 683 -67.9962 14.217 -20.0235
1 681 -70.64 14.3665 -20.104
1 647 -70.6501 11.6043 -20.1724
1 650 -66.6708 12.8722 -18.3043
1 651 -65.2871 11.6009 -20.0213
1 652 -63.8582 12.9762 -18.4386
1 685 -65.2012 14.1031 -19.9265
1 653 -62.4349 11.5666 -20.0812
1 654 -60.9111 12.9855 -18.5659
1 687 -62.4024 14.2541 -20.0679
1 655 -59.391 11.6505 -20.2016
1 656 -58.1536 13.0246 -18.7521
1 657 -56.5934 11.6547 -19.9854
1 658 -55.1134 12.9907 -18.7014
1 659 -53.6404 11.6805 -20.1803
1 693 -53.6058 14.3535 -20.1932
1 660 -52.1534 12.9956 -18.6253
1 661 -50.846 11.3928 -20.1572
1 662 -49.4299 12.7789 -18.7082
1 695 -50.8229 14.1919 -20.3075
1 663 -48.1306 11.3515 -20.2374
1 664 -46.7157 12.7103 -18.6127
1 697 -47.959 13.9382 -20.3397
1 699 -45.24 13.9044 -20.1396
1 665 -45.1899 11.3457 -20.0974
1 666 -43.7703 12.7085 -18.4222
1 667 -42.3278 11.5463 -20.1555
1 701 -42.6951 14.2813 -19.9776
1 668 -41.0877 12.7809 -18.5135
1 669 -39.4301 11.4069 -19.9875
1 670 -38.1664 12.625 -18.5274
1 703 -39.6132 14.1096 -20.1959
1 671 -36.6797 11.3287 -20.1043
1 672 -35.394 12.7407 -18.5866
1 705 -36.9039 13.9403 -20.169
1 673 -33.8979 11.4522 -20.2781
1 674 -32.4315 12.7044 -18.5982
1 675 -31.0223 11.3472 -20.3252
1 707 -33.7882 13.8531 -20.1171
1 709 -31.0607 13.9385 -20.2528
1 676 -29.6764 12.7854 -18.5371
1 677 -28.202 11.4334 -20.1165
1 711 -28.1963 14.043 -20.2508
1 678 -26.9268 12.8263 -18.4753
1 679 -25.4748 11.3235 -20.0137
1 680 -24.0652 12.9511 -18.6834
1 713 -25.5958 14.0328 -20.1908
1 682 -69.4252 15.8226 -18.4307
1 684 -66.7303 15.8091 -18.5187
1 686 -63.7965 15.7656 -18.7173
1 688 -60.9016 15.809 -18.7363
1 689 -59.4683 14.5865 -20.2754
1 691 -56.4918 14.3918 -19.9215
1 690 -58.0572 15.7903 -18.5663
1 692 -55.1664 15.8771 -18.6648
1 694 -52.2483 15.7333 -18.7806
1 696 -49.4083 15.6678 -18.9483
1 698 -46.7912 15.6607 -18.7668
1 700 -43.9621 15.7519 -18.6233
1 702 -41.0385 15.6425 -18.6248
1 704 -38.2151 15.5277 -18.8165
1 706 -35.3275 15.4395 -18.9526
1 708 -32.4205 15.3757 -18.778
1 710 -29.5249 15.344 -18.7329
1 712 -26.7799 15.6625 -18.5863
1 714 -24.1074 15.7422 -18.7806
1 715 -69.3242 -18.572 -15.7909
1 1176 -67.8849 -19.9011 -14.4671
1 716 -66.3993 -18.4958 -15.9964
1 717 -63.5804 -18.5155 -15.8469
1 718 -60.9015 -18.6261 -15.7703
1 719 -57.9734 -18.6009 -15.7194
1 720 -55.0352 -18.5491 -15.8202
1 1186 -53.6836 -20.0082 -14.304
1 721 -52.3281 -18.4149 -15.7383
1 722 -49.5361 -18.5521 -15.8647
1 723 -46.8237 -18.5643 -15.892
1 1192 -45.4414 -20.0474 -14.3057
1 1190 -48.2163 -20.1737 -14.3615
1 724 -44.0007 -18.331 -15.8807
1 1194 -42.6607 -19.8334 -14.4714
1 725 -40.9911 -18.5537 -15.8959
1 726 -38.0673 -18.4282 -15.9118
1 727 -35.3466 -18.5704 -15.772
1 728 -32.3725 -18.4289 -15.8054
1 1200 -33.8778 -20.0499 -14.5606
1 729 -29.5764 -18.5469 -15.808
1 1204 -27.9651 -19.8724 -14.3192
1 730 -26.582 -18.5386 -15.8006
1 731 -23.8678 -18.4101 -15.9753
1 733 -69.4138 -15.6066 -15.6723
1 734 -68.0163 -16.9746 -17.2516
1 1210 -67.9091 -17.0998 -14.351
1 735 -66.4357 -15.647 -15.7801
1 736 -65.0196 -17.1254 -17.3529
1 737 -63.6411 -15.6752 -15.6496
1 1212 -65.0806 -17.1474 -14.3963
1 738 -62.266 -17.0087 -17.2408
1 739 -60.8649 -15.5297 -15.7822
1 1214 -62.2666 -16.9977 -14.3049
1 740 -59.5499 -17.1468 -17.156
1 741 -58.132 -15.6645 -15.759
1 742 -56.7189 -17.0486 -17.1117
1 1216 -59.518 -17.0956 -14.3306
1 1218 -56.6342 -17.1147 -14.369
1 743 -55.1821 -15.5317 -15.7266
1 744 -53.8948 -17.0827 -17.2461
1 1220 -53.7756 -16.9667 -14.3935
1 745 -52.3515 -15.6 -15.8796
1 746 -51.0192 -17.176 -17.2151
1 747 -49.617 -15.6477 -15.8483
1 748 -48.0795 -17.0843 -17.3402
1 749 -46.7795 -15.588 -15.9157
1 1224 -48.2614 -17.0359 -14.4855
1 1226 -45.4356 -17.0647 -14.4901
1 750 -45.4064 -16.8955 -17.4832
1 751 -43.8368 -15.5565 -15.8484
1 752 -42.4653 -16.9665 -17.2991
1 1228 -42.5219 -17.0142 -14.4932
1 753 -41.0195 -15.6325 -15.8473
1 754 -39.6383 -17.1533 -17.3719
1 1230 -39.4648 -17.1337 -14.4454
1 755 -38.0079 -15.7427 -15.9166
1 756 -36.664 -17.1967 -17.3895
1 757 -35.3245 -15.6767 -15.8711
1 1232 -36.7489 -17.0529 -14.371
1 758 -34.0696 -17.1207 -17.3766
1 759 -32.4921 -15.5878 -15.8503
1 760 -30.9542 -17.1154 -17.229
1 1234 -33.8805 -17.0131 -14.4076
1 794 -31.0124 -14.3857 -17.398
1 761 -29.5544 -15.6625 -15.8724
1 762 -27.8903 -17.1126 -17.3659
1 1238 -28.1394 -17.1776 -14.4227
1 763 -26.8473 -15.6235 -15.7043
1 764 -25.3363 -16.8965 -17.3778
1 765 -23.9178 -15.5845 -15.8666
1 1240 -25.3509 -17.024 -14.4231
1 768 -67.9018 -14.1074 -17.0517
1 767 -69.4417 -12.8893 -15.6497
1 802 -67.9216 -11.3854 -17.0873
1 770 -65.2142 -14.1916 -17.2024
1 769 -66.4403 -12.7967 -15.5637
1 771 -63.6511 -12.7984 -15.9234
1 804 -65.1088 -11.3792 -17.1003
1 772 -62.2983 -14.3636 -17.3494
1 773 -60.8343 -12.7556 -15.8838
1 806 -62.3989 -11.3643 -17.2485
1 1248 -62.2958 -14.2164 -14.3374
1 1282 -62.2725 -11.3675 -14.4212
1 774 -59.5216 -14.3026 -17.3963
1 776 -56.809 -14.3195 -17.1692
1 775 -58.1633 -12.8509 -15.937
1 808 -59.6304 -11.2552 -17.3198
1 810 -56.7628 -11.2562 -17.2915
1 1284 -59.4502 -11.2534 -14.4156
1 1286 -56.7126 -11.3334 -14.4672
1 1250 -59.5004 -14.1761 -14.5153
1 1252 -56.5856 -14.1973 -14.3178
1 778 -53.8569 -14.2953 -17.1703
1 1254 -53.7855 -14.0895 -14.3052
1 777 -55.2456 -12.7524 -15.7919
1 812 -53.8634 -11.3347 -17.2452
1 1288 -53.7493 -11.2652 -14.5232
1 780 -51.0776 -14.2437 -17.2054
1 779 -52.4115 -12.7355 -15.8751
1 781 -49.6618 -12.8082 -15.8618
1 814 -51.0747 -11.365 -17.2581
1 1290 -51.0496 -11.2553 -14.431
1 1256 -50.8272 -14.242 -14.3992
1 782 -48.1412 -14.0615 -17.309
1 1258 -48.1382 -14.3355 -14.4661
1 783 -46.7403 -12.759 -15.8267
1 816 -48.2131 -11.3606 -17.3169
1 1292 -48.2124 -11.2931 -14.397
1 818 -45.4318 -11.281 -17.2647
1 784 -45.3243 -14.1202 -17.2783
1 1294 -45.3153 -11.4184 -14.5206
1 786 -42.3909 -14.1841 -17.0775
1 1262 -42.4503 -14.1579 -14.4455
1 785 -43.925 -12.7407 -15.823
1 820 -42.4788 -11.3772 -17.3462
1 1296 -42.4299 -11.4515 -14.4804
1 1260 -45.2784 -14.2011 -14.4626
1 788 -39.5698 -14.2754 -17.3195
1 1264 -39.5491 -14.2938 -14.4365
1 787 -40.9675 -12.7886 -15.8553
1 789 -38.1256 -12.7171 -15.9174
1 822 -39.5324 -11.3176 -17.2631
1 1298 -39.5558 -11.4661 -14.399
1 790 -37.0221 -14.2666 -17.3131
1 791 -35.3709 -12.7266 -16.0046
1 824 -36.8122 -11.254 -17.3741
1 1300 -36.7246 -11.4328 -14.4276
1 1266 -36.6175 -14.0559 -14.4483
1 792 -33.9078 -14.1727 -17.3109
1 1270 -30.8785 -14.2717 -14.3857
1 793 -32.382 -12.8528 -15.8177
1 826 -33.9603 -11.4631 -17.4887
1 828 -31.1308 -11.4434 -17.4146
1 1304 -31.0451 -11.3726 -14.477
1 1268 -33.9644 -14.1572 -14.5818
1 1302 -33.8957 -11.4998 -14.4391
1 796 -28.1955 -14.249 -17.3211
1 795 -29.6057 -12.9389 -15.9559
1 830 -28.2425 -11.3642 -17.2829
1 1306 -28.2417 -11.4706 -14.4081
1 1272 -28.3551 -14.3527 -14.3174
1 798 -25.4908 -14.0221 -17.1493
1 797 -26.8384 -12.7993 -15.8289
1 799 -23.9891 -12.7484 -15.629
1 832 -25.4124 -11.2624 -17.2294
1 1308 -25.4476 -11.5678 -14.3551
1 801 -69.4156 -9.97684 -15.7855
1 836 -67.953 -8.43065 -17.2229
1 1312 -68.0789 -8.50473 -14.3572
1 803 -66.5274 -9.92066 -15.6932
1 805 -63.7768 -9.91419 -15.8958
1 838 -65.1145 -8.4802 -17.2535
1 1314 -65.0755 -8.46773 -14.4326
1 807 -60.9629 -9.87723 -15.9501
1 840 -62.431 -8.42071 -17.3194
1 1316 -62.2859 -8.41548 -14.4273
1 809 -58.1531 -9.79411 -15.8403
1 842 -59.4663 -8.54 -17.4022
1 844 -56.7019 -8.36807 -17.1664
1 1318 -59.4664 -8.45985 -14.4663
1 1320 -56.529 -8.50777 -14.3611
1 811 -55.2626 -9.92592 -15.801
1 846 -53.7285 -8.40903 -17.144
1 1322 -53.724 -8.40676 -14.3467
1 813 -52.3394 -9.73916 -15.8583
1 815 -49.6881 -9.87448 -15.9231
1 848 -50.9477 -8.53763 -17.3871
1 1324 -50.8986 -8.45998 -14.3547
1 817 -46.8997 -9.96891 -15.8791
1 850 -48.2129 -8.48506 -17.3815
1 1326 -48.2973 -8.49414 -14.4905
1 852 -45.3484 -8.72669 -17.3132
1 1328 -45.3484 -8.54665 -14.6092
1 819 -43.798 -9.96011 -15.9167
1 854 -42.3241 -8.61436 -17.423
1 1330 -42.4108 -8.51899 -14.4356
1 853 -43.7838 -7.25328 -15.9861
1 821 -41.0723 -10.0842 -15.7904
1 823 -38.1732 -9.9149 -15.8557
1 856 -39.7171 -8.59633 -17.3553
1 1332 -39.604 -8.5822 -14.4818
1 825 -35.3713 -9.93702 -15.7937
1 858 -36.7114 -8.53364 -17.3292
1 1334 -36.8422 -8.41797 -14.5092
1 827 -32.6125 -10.1121 -15.9736
1 860 -33.9671 -8.69257 -17.3482
1 862 -31.144 -8.73647 -17.3726
1 1336 -33.9104 -8.48789 -14.4762
1 1338 -31.0517 -8.50842 -14.4631
1 829 -29.6633 -9.99833 -15.9166
1 864 -28.1562 -8.44153 -17.2873
1 1340 -28.1629 -8.54689 -14.4717
1 831 -26.7764 -9.92521 -15.8001
1 833 -24.0157 -10.0263 -15.7733
1 866 -25.4211 -8.63796 -17.391
1 1342 -25.3471 -8.56237 -14.374
1 835 -69.3334 -7.00209 -15.7057
1 869 -69.4082 -4.12692 -15.6062
1 870 -67.9441 -5.56703 -17.2448
1 837 -66.5249 -7.00022 -15.7851
1 839 -63.7327 -7.01438 -15.8284
1 871 -66.4678 -4.18971 -15.7359
1 872 -65.1711 -5.58552 -17.2705
1 873 -63.6901 -4.19958 -15.8859
1 1348 -65.0602 -5.60551 -14.4023
1 841 -60.8908 -7.01799 -15.8955
1 874 -62.3368 -5.61981 -17.3522
1 875 -60.8811 -4.14925 -15.8354
1 1350 -62.1875 -5.58091 -14.431
1 843 -58.0404 -6.93085 -15.6767
1 876 -59.4641 -5.70609 -17.2409
1 877 -57.9957 -4.21411 -15.7298
1 878 -56.659 -5.58169 -17.1632
1 1354 -56.5067 -5.59894 -14.3885
1 845 -55.1455 -7.04705 -15.8142
1 879 -55.1245 -4.10512 -15.8559