ITEM: TIMESTEP
200000
ITEM: NUMBER OF ATOMS
24050
ITEM: BOX BOUNDS pp pp pp
-56.5954762174 56.5954762174
-53.93918023 53.93918023
-53.6233749296 53.6233749296
ITEM: ATOMS type id x y z
1 132 -44.7224 8.61871 -28.9875
1 6 -42.2412 8.7724 -29.19
1 7 -39.4762 9.60866 -28.9161
1 8 -36.8887 9.91327 -28.7295
1 9 -34.3062 9.63197 -28.6132
1 23 -42.9746 13.1729 -29.5737
1 22 -40.4017 13.2787 -29.6566
1 26 -35.6082 14.3913 -29.0779
1 42 -37.8104 15.8962 -28.4304
1 9313 -20.2496 -21.7064 -25.0095
1 731 -21.5385 -19.4656 -25.9935
1 3348 -21.9968 31.834 -3.0727
1 8884 -20.0708 -17.4461 -27.347
1 8885 -20.2366 -14.7878 -26.4494
1 8917 -20.1465 -12.3918 -25.5501
1 8258 -21.5535 -7.91571 -25.2355
1 4036 -46.111 -22.4424 -0.0240666
1 333 -33.6934 -3.66116 -25.8741
1 363 -30.8619 -3.96419 -26.1206
1 334 -32.3912 -5.86073 -25.3959
1 329 -42.9106 -0.684275 -25.6685
1 330 -40.3991 -0.0838188 -25.3453
1 397 -30.4664 -1.1575 -25.7265
1 361 -33.4434 -1.27653 -25.1821
1 81 -27.6073 -1.21794 -25.926
1 112 -24.7927 -1.30331 -25.9748
1 116 -23.0856 -3.19874 -25.2277
1 114 -26.2129 -2.97512 -24.7125
1 118 -21.8841 -1.39354 -26.4987
1 85 -20.3946 -3.00637 -25.5999
1 88 -51.154 2.72117 -25.4822
1 71 -48.5502 2.5175 -25.3367
1 383 -46.353 2.76607 -25.4622
1 351 -44.5115 1.18734 -25.5919
1 353 -42.0712 1.80989 -26.4888
1 385 -43.6505 3.40787 -25.4247
1 355 -39.3391 1.91054 -26.463
1 332 -35.6161 -0.0943493 -25.5586
1 357 -34.5186 2.4017 -26.4183
1 76 -36.8377 2.09431 -26.8783
1 359 -32.6788 0.54756 -26.3459
1 393 -32.3655 3.17899 -25.2904
1 79 -29.2141 3.13129 -26.2966
1 108 -26.3653 3.09708 -26.2444
1 110 -26.0959 0.597679 -27.1554
1 16 -23.1863 0.532073 -27.1848
1 148 -24.5362 1.43288 -25.2802
1 186 -23.4936 3.37551 -26.31
1 17 -21.7594 2.50563 -27.6432
1 8291 -20.2213 0.416913 -27.4986
1 152 -21.5554 1.34351 -25.5075
1 8292 -19.8246 3.30457 -26.414
1 16148 -53.9228 5.78022 -25.1227
1 1 -52.2594 4.45367 -26.5415
1 2 -52.0092 6.96737 -26.2645
1 90 -49.6417 4.47682 -26.5203
1 124 -48.9985 6.63593 -25.4915
1 92 -48.577 6.58007 -27.8224
1 72 -47.3577 4.54975 -26.6971
1 93 -46.6432 7.01085 -25.5478
1 94 -46.0936 6.95702 -27.7756
1 73 -44.95 5.15407 -26.7107
1 74 -42.4036 5.12316 -26.5631
1 75 -40.6589 3.57555 -27.4523
1 387 -41.0737 3.68284 -25.0156
1 99 -39.7059 5.45252 -26.2617
1 100 -37.9246 4.23444 -27.4614
1 389 -38.3439 3.74842 -24.7376
1 102 -35.7172 5.26247 -27.8849
1 101 -37.1816 6.25779 -26.0435
1 103 -34.8239 6.49428 -25.9629
1 391 -35.8466 4.30269 -25.3607
1 104 -33.9691 7.00185 -28.5592
1 77 -33.4258 4.68463 -27.2006
1 78 -30.9327 5.00536 -26.5583
1 105 -32.3613 6.93184 -26.23
1 106 -28.1162 5.14576 -26.7845
1 144 -26.1461 5.86589 -25.1972
1 15 -23.3795 5.90836 -25.5059
1 8178 -20.0198 4.60924 -28.5718
1 8324 -21.9506 5.0423 -27.4441
1 8326 -19.8007 6.09395 -26.1308
1 290 -55.233 9.85431 -25.1503
1 3 -50.4014 8.24202 -26.7493
1 19 -52.4798 9.92933 -25.8369
1 20 -49.0378 10.4106 -28.0723
1 126 -47.7004 8.68552 -26.6716
1 128 -45.2177 9.02376 -26.7673
1 95 -44.1588 7.37625 -25.4472
1 96 -43.4582 7.10488 -27.5923
1 130 -42.889 9.34186 -26.7891
1 97 -41.8321 7.35845 -25.375
1 98 -40.8791 7.17351 -27.8969
1 133 -40.509 9.43969 -26.9149
1 134 -38.5383 7.76175 -27.6796
1 168 -38.2234 9.99924 -26.7225
1 457 -39.1119 7.65865 -25.3367
1 136 -36.1855 8.01304 -27.6401
1 170 -35.7772 10.4893 -26.6141
1 135 -36.6567 8.54775 -25.2055
1 138 -34.077 8.81941 -26.3743
1 140 -31.8589 9.01506 -27.7816
1 142 -29.9024 7.40342 -26.4826
1 176 -29.1836 9.72182 -26.3107
1 13 -27.6499 7.54808 -25.9496
1 31 -26.4302 9.86333 -26.5378
1 14 -24.9756 7.6711 -26.304
1 12 -24.3353 10.1209 -25.4533
1 34 -22.2354 7.37605 -26.4221
1 8194 -20.0791 8.61108 -27.4449
1 8357 -21.403 10.0463 -25.6072
1 52 -54.2223 12.1461 -25.0277
1 158 -49.74 10.5539 -25.697
1 35 -50.9403 11.6734 -27.4597
1 4 -46.5681 10.6178 -28.1907
1 160 -47.39 11.075 -25.9829
1 38 -48.6906 12.5192 -27.462
1 21 -46.3395 13.1069 -27.3003
1 5 -44.1791 10.9968 -28.1663
1 162 -45.1676 11.2413 -25.9434
1 164 -43.6682 13.2276 -27.2097
1 131 -42.6178 11.542 -25.9075
1 166 -41.6749 11.1877 -28.126
1 200 -41.2864 13.3742 -27.2672
1 167 -39.9604 11.5054 -25.7632
1 24 -39.2726 11.8235 -28.2069
1 202 -38.9308 13.9 -27.073
1 169 -37.6268 12.198 -25.8126
1 25 -37.0037 12.2341 -28.0544
1 27 -34.4969 12.6289 -28.0334
1 206 -35.3129 12.6486 -25.6208
1 204 -36.4168 14.3273 -26.8675
1 11 -30.4195 11.0699 -28.0569
1 10 -32.9491 10.9256 -26.5969
1 28 -32.1203 13.1514 -27.9957
1 174 -30.9147 12.0738 -25.8588
1 208 -33.1563 13.0315 -25.275
1 29 -29.641 13.4076 -27.6906
1 30 -28.2165 11.8811 -26.7073
1 212 -29.1117 13.6957 -25.0904
1 32 -26.4659 13.0785 -25.2365
1 50 -24.0046 12.8548 -25.0667
1 51 -22.5698 11.8767 -26.7627
1 8359 -19.754 11.3829 -26.7198
1 8210 -20.8208 13.2625 -27.8831
1 8360 -19.4129 14.1933 -26.1219
1 8358 -21.1806 12.7866 -24.9174
1 36 -53.2778 14.5872 -25.0711
1 37 -50.7932 14.0793 -26.1728
1 54 -50.1084 16.4724 -25.4999
1 55 -46.9293 16.8016 -27.763
1 196 -48.3071 14.9213 -26.3015
1 198 -45.6775 15.1755 -26.2424
1 230 -47.6341 17.2946 -25.3306
1 40 -42.3842 15.1729 -28.546
1 39 -44.8926 14.762 -28.6687
1 232 -45.1873 17.4443 -25.3793
1 56 -44.4377 17.2353 -27.7679
1 234 -43.2572 15.5178 -26.2926
1 41 -39.9273 15.5376 -28.7185
1 236 -40.7333 15.819 -26.3744
1 238 -38.4711 16.1015 -25.9463
1 43 -35.2672 16.5349 -27.9237
1 240 -36.1369 16.5183 -25.8114
1 44 -33.9408 14.8261 -26.7589
1 46 -31.1823 14.6012 -26.1689
1 242 -33.7209 17.1933 -25.8415
1 45 -31.9312 16.3657 -27.8515
1 64 -31.1868 17.0482 -25.4656
1 48 -27.4884 14.8588 -26.5419
1 47 -29.5039 16.1818 -27.4756
1 248 -28.306 17.1291 -25.2428
1 49 -24.6746 14.9894 -26.5243
1 68 -24.3103 17.6604 -25.8113
1 8390 -22.3653 14.495 -26.1292
1 8392 -20.6575 15.982 -26.8473
1 8391 -21.8225 17.2106 -25.3652
1 8226 -21.4429 18.1736 -28.2493
1 19167 -56.4837 3.02623 -0.504081
1 57 -46.1576 19.3129 -26.7063
1 58 -41.9084 17.4591 -27.8554
1 235 -42.7653 17.7191 -25.1138
1 268 -43.5742 19.5408 -26.5241
1 59 -39.4695 17.9816 -27.5954
1 237 -40.3544 18.0541 -25.3112
1 270 -41.2061 19.9241 -26.6928
1 272 -38.8347 20.0693 -26.3606
1 60 -37.0068 18.1877 -27.4267
1 274 -36.5279 20.6289 -26.3403
1 61 -34.5939 18.8746 -27.0605
1 241 -35.713 18.8454 -24.8568
1 276 -34.0423 21.2424 -26.302
1 62 -31.983 19.2655 -27.4179
1 63 -29.7222 20.7529 -27.9254
1 66 -26.7427 18.431 -26.4894
1 65 -29.6879 18.5472 -26.77
1 280 -29.277 21.3512 -25.6937
1 288 -23.8265 20.4395 -25.0669
1 8425 -22.6029 19.4008 -26.4889
1 8393 -20.0187 18.9446 -26.2263
1 8227 -20.4453 21.0371 -27.7197
1 304 -40.9213 22.0181 -25.7049
1 306 -38.3499 22.5337 -25.6006
1 308 -35.8408 22.9158 -25.439
1 312 -31.7853 21.3974 -26.1154
1 313 -31.0765 23.7217 -25.3065
1 310 -33.6526 23.4298 -25.1842
1 318 -27.5588 22.6314 -26.7467
1 8426 -19.7249 21.7311 -25.4858
1 8458 -19.3969 24.29 -24.8873
1 10303 -22.844 -22.1086 -22.1193
1 9792 -20.2022 -22.1424 -22.5042
1 1206 -24.4308 -20.129 -23.3357
1 1207 -22.8374 -18.5747 -24.1879
1 9808 -21.3708 -20.1046 -23.2093
1 9314 -19.9826 -18.3669 -24.2772
1 1202 -27.2477 -17.5187 -21.9741
1 728 -27.3842 -15.0855 -21.2544
1 340 -24.196 -16.497 -24.8743
1 730 -25.8401 -15.7478 -23.0573
1 1205 -24.2633 -17.5647 -22.4002
1 1240 -22.7963 -15.5864 -23.2338
1 9346 -21.6217 -16.643 -25.2561
1 9841 -21.5303 -17.6057 -22.4381
1 9347 -20.1584 -15.7332 -23.5487
1 1192 -36.1931 -11.2888 -21.7631
1 754 -33.2816 -11.4621 -22.6141
1 756 -31.6454 -13.2352 -21.4817
1 336 -30.3403 -11.4643 -22.6735
1 337 -27.327 -11.3079 -22.923
1 758 -28.8387 -13.1884 -21.985
1 760 -25.9115 -13.1039 -22.3221
1 729 -24.6534 -13.8557 -24.3372
1 762 -22.8701 -12.947 -22.4533
1 338 -24.5041 -11.4655 -23.4012
1 764 -21.5265 -13.849 -24.3873
1 339 -21.8358 -11.2703 -23.8364
1 765 -20.2192 -13.0691 -22.5838
1 16479 -54.5695 -8.63779 -22.2484
1 16477 -56.2469 -10.4253 -21.2208
1 325 -49.8256 -7.27118 -22.3697
1 324 -51.6851 -8.8856 -21.7039
1 738 -47.1537 -7.62268 -21.713
1 1190 -37.748 -9.7841 -22.9601
1 724 -34.85 -9.4216 -22.9012
1 723 -36.0405 -7.74197 -23.864
1 335 -31.6877 -9.63681 -23.5261
1 752 -33.3486 -7.99773 -24.1749
1 365 -30.4188 -7.68215 -24.5379
1 753 -33.1249 -8.61493 -21.592
1 401 -27.4546 -7.63067 -24.7997
1 790 -30.2518 -8.47025 -21.8004
1 367 -28.8948 -9.37756 -23.7231
1 368 -27.4275 -8.42572 -21.9855
1 369 -26.1366 -9.4234 -24.0185
1 370 -24.4036 -8.54774 -22.4337
1 371 -23.6042 -9.48719 -24.5384
1 796 -23.0898 -10.485 -21.6271
1 794 -25.8202 -10.4786 -21.2504
1 372 -21.7238 -8.79783 -22.4064
1 373 -20.3934 -9.78726 -24.3615
1 798 -20.0607 -10.5217 -21.8386
1 16198 -55.2542 -4.24095 -22.4098
1 341 -52.532 -6.90189 -22.8205
1 375 -52.4663 -4.39985 -21.6889
1 343 -51.0322 -5.1323 -23.4302
1 345 -49.1765 -3.60613 -24.121
1 326 -48.2132 -5.60908 -23.0908
1 327 -46.3776 -3.85716 -23.6625
1 740 -45.3241 -5.90992 -22.6108
1 742 -43.656 -4.29516 -23.2215
1 720 -42.8475 -6.37824 -22.1653
1 743 -42.4097 -3.86543 -21.037
1 721 -41.1299 -4.66427 -23.2222
1 722 -38.7662 -4.61333 -23.2
1 1188 -39.8745 -6.6452 -22.0765
1 750 -34.9361 -5.82622 -24.8368
1 1224 -37.4125 -6.81439 -22.0187
1 749 -36.1632 -4.95352 -23.0358
1 751 -34.5904 -6.89001 -22.3165
1 786 -33.3968 -5.01407 -23.2706
1 788 -31.8018 -6.98801 -22.684
1 822 -31.7052 -4.1306 -21.5518
1 364 -30.4421 -4.95738 -23.5828
1 366 -28.7565 -6.62423 -22.924
1 82 -27.3989 -4.9535 -23.6989
1 400 -28.7593 -3.96506 -22.0105
1 403 -25.8317 -6.73359 -22.9252
1 437 -25.8311 -3.89912 -22.3875
1 83 -24.6831 -4.77889 -24.1708
1 405 -23.1309 -6.83493 -23.4187
1 439 -22.9532 -3.9107 -22.6788
1 84 -21.7003 -5.10195 -24.5141
1 407 -20.2474 -7.0443 -23.5626
1 441 -20.2661 -4.04145 -22.7917
1 406 -21.7256 -5.87779 -21.8309
1 16199 -53.5127 -2.47534 -22.9662
1 16231 -54.4578 -0.514938 -24.1317
1 4047 -36.2527 -18.6611 -0.19867
1 16230 -55.0899 -1.30372 -21.5863
1 377 -50.7161 -2.84325 -22.5011
1 69 -51.6367 -0.868413 -23.7726
1 411 -50.5112 -0.0405102 -21.8618
1 379 -48.8538 -1.07848 -23.2951
1 347 -47.2912 -2.05166 -25.0488
1 348 -46.2384 -1.48694 -23.0511
1 346 -47.9393 -3.03767 -21.8998
1 774 -45.2068 -3.25057 -21.3481
1 328 -44.6776 -2.64735 -25.0879
1 350 -43.4153 -2.02722 -22.2635
1 744 -41.9658 -2.46378 -24.4504
1 778 -41.9237 -0.26415 -23.0564
1 776 -40.9055 -2.23304 -21.9107
1 746 -39.4991 -2.495 -24.4516
1 780 -39.4536 -0.230086 -22.8499
1 745 -38.5894 -2.05634 -21.8412
1 784 -34.9432 -3.00099 -23.8119
1 748 -37.1233 -1.48004 -24.433
1 783 -36.1123 -2.12654 -22.0286
1 360 -34.8253 -0.225155 -23.1151
1 362 -31.9653 -3.13704 -24.0751
1 398 -30.2152 -2.25439 -22.8178
1 396 -31.7731 -0.302847 -23.681
1 820 -33.3917 -2.23263 -22.3665
1 399 -28.9517 -2.96466 -24.8304
1 435 -27.5683 -2.05397 -23.0828
1 433 -28.9592 -0.362977 -23.8458
1 113 -26.0842 -0.256211 -24.3219
1 115 -24.4392 -2.09433 -23.336
1 473 -22.9677 -1.20339 -21.7039
1 150 -23.198 -0.342404 -24.5146
1 117 -21.5329 -2.03813 -23.5398
1 119 -20.2326 -0.388294 -24.7514
1 442 -20.1558 -1.253 -22.0987
1 16232 -53.1951 0.238337 -21.9762
1 16295 -54.2935 2.15821 -23.3884
1 16146 -55.9017 3.37846 -21.9983
1 16262 -55.9352 0.654282 -22.5663
1 86 -52.57 0.724965 -25.3244
1 120 -52.7409 3.90114 -24.0136
1 70 -49.8939 0.636487 -24.5329
1 87 -51.6806 1.90754 -23.0216
1 89 -49.8642 3.45279 -23.5194
1 413 -48.6906 1.34841 -22.4877
1 381 -46.8239 0.628639 -24.0941
1 415 -47.0901 3.11408 -23.0434
1 382 -45.8668 1.07045 -21.9042
1 349 -44.407 -0.211574 -23.5575
1 384 -44.4848 3.11173 -23.2677
1 352 -42.6196 1.631 -24.1253
1 386 -42.0672 3.74605 -23.0199
1 810 -43.3979 1.41687 -21.687
1 331 -37.8541 0.906209 -24.7382
1 354 -40.0966 1.78876 -24.1082
1 814 -38.1241 2.23796 -22.0973
1 812 -41.0198 1.84625 -21.8368
1 782 -37.0613 -0.0847973 -22.258
1 356 -35.9925 2.06979 -24.3084
1 816 -35.1182 1.96402 -21.8923
1 395 -30.5902 1.46314 -24.7871
1 358 -33.614 1.33398 -24.2653
1 394 -31.9012 2.32208 -22.8438
1 818 -33.002 0.396875 -21.5775
1 432 -30.2488 0.708752 -21.9708
1 80 -27.6745 1.47477 -25.1114
1 431 -28.9755 2.32677 -23.2039
1 469 -27.1517 0.690348 -22.3583
1 467 -27.3437 3.31814 -21.488
1 111 -25.824 2.39254 -23.3346
1 149 -24.3374 0.667047 -22.6751
1 151 -22.9384 2.54742 -23.7687
1 147 -24.2411 3.28215 -21.8091
1 475 -21.5809 0.68188 -22.7394
1 8604 -19.9557 2.44432 -24.0029
1 476 -21.4622 3.30692 -21.9638
1 16131 -55.4227 4.15571 -24.6507
1 16328 -55.4252 7.21987 -23.8582
1 16297 -54.2826 4.93837 -22.5328
1 154 -52.4494 6.38247 -23.2446
1 122 -50.8279 5.33781 -24.7833
1 121 -51.3707 4.55888 -22.0443
1 123 -49.5872 6.17571 -22.8239
1 91 -47.97 4.89449 -24.4072
1 417 -45.666 5.11298 -24.3362
1 416 -46.5529 5.4809 -21.8787
1 419 -43.283 5.51524 -24.1358
1 420 -41.6329 6.10867 -21.9179
1 418 -44.11 5.49446 -22.0405
1 388 -39.4489 4.19579 -22.668
1 421 -40.7167 5.76687 -23.9774
1 423 -38.1351 5.99351 -23.9042
1 422 -39.265 6.42131 -21.6183
1 425 -35.6003 6.15381 -23.6687
1 390 -36.7107 4.22292 -22.7396
1 424 -36.7369 6.39809 -21.5414
1 392 -34.1574 3.68815 -23.3195
1 427 -32.9359 5.56086 -24.5037
1 429 -30.4901 4.07926 -24.1101
1 428 -31.8466 5.06508 -22.1086
1 426 -33.5842 6.93829 -22.0396
1 463 -31.0493 7.08093 -23.6515
1 107 -29.0374 5.95087 -24.6516
1 465 -29.0512 5.17259 -22.3287
1 109 -27.7212 4.06881 -24.1685
1 143 -27.4252 6.89728 -23.1806
1 145 -25.867 5.03036 -22.5828
1 146 -24.756 3.98717 -24.5771
1 182 -24.4385 6.65159 -23.5106
1 184 -23.0253 4.77008 -22.9545
1 187 -21.6226 6.37343 -23.808
1 153 -21.4032 4.21811 -25.0708
1 8637 -19.807 5.09118 -23.2363
1 18 -53.3701 8.20884 -24.3296
1 16363 -54.9848 9.27323 -22.8412
1 16330 -53.9671 7.59715 -21.7323
1 190 -53.2996 10.5809 -23.4224
1 188 -52.2033 8.89422 -22.2881
1 156 -50.9879 8.1345 -24.226
1 157 -50.6939 10.4389 -23.3203
1 481 -49.5934 8.50767 -22.0694
1 449 -47.3585 7.23561 -23.2329
1 125 -48.5247 8.83038 -24.508
1 483 -47.2189 9.35511 -22.2622
1 127 -46.2114 9.23328 -24.4497
1 451 -45.1199 7.41802 -23.1784
1 453 -42.805 7.89102 -23.0487
1 485 -45.0211 9.71958 -22.1266
1 129 -43.9197 9.36373 -24.4193
1 454 -42.419 10.0874 -22.2208
1 489 -41.3851 9.63269 -24.6449
1 455 -40.4953 7.99324 -23.2185
1 456 -40.0194 10.251 -22.2389
1 491 -38.8295 9.899 -24.3398
1 458 -37.827 8.12274 -22.9981
1 492 -37.6238 10.695 -22.0736
1 459 -35.46 8.63399 -23.0538
1 171 -36.738 10.5593 -24.2808
1 139 -31.6054 9.4105 -24.9902
1 461 -33.7572 8.05072 -24.3692
1 495 -32.7616 9.45696 -22.5525
1 497 -30.487 9.39184 -22.3619
1 141 -29.1182 8.67501 -24.2581
1 179 -27.6127 9.54657 -22.3522
1 499 -29.1123 7.54223 -21.7089
1 178 -26.081 8.62587 -24.3602
1 33 -23.0279 8.37898 -24.5326
1 185 -22.6435 7.61337 -21.9386
1 218 -24.1055 9.36185 -22.6147
1 181 -25.8348 7.82426 -21.6415
1 8638 -20.1025 7.26509 -22.0938
1 8325 -20.2555 8.17164 -24.7748
1 8670 -21.4812 9.25275 -22.8504
1 8672 -19.9115 10.8244 -23.8134
1 224 -53.1425 13.3235 -22.9804
1 222 -54.7423 12.1236 -22.034
1 16181 -56.5598 10.5902 -21.2891
1 194 -49.3141 12.8398 -24.9718
1 192 -51.7032 12.2042 -24.6768
1 193 -50.345 13.0559 -22.4768
1 191 -51.9187 11.6598 -21.5688
1 163 -47.1107 13.1293 -24.9788
1 159 -48.3818 11.1218 -23.7073
1 195 -47.6831 13.1808 -22.6826
1 161 -46.0334 11.3929 -23.6389
1 521 -45.5527 13.7505 -22.6431
1 165 -44.7046 13.516 -24.9868
1 487 -43.6192 11.811 -23.581
1 523 -43.0413 13.9597 -22.7003
1 201 -42.1329 13.652 -24.9586
1 525 -41.2043 11.8533 -23.6187
1 527 -38.6538 12.354 -23.6069
1 137 -34.3171 10.7591 -24.094
1 529 -36.3769 12.8725 -23.2565
1 494 -35.4463 10.8658 -21.9527
1 173 -33.9579 13.0131 -23.2275
1 172 -32.1788 11.2777 -23.897
1 175 -31.2642 13.5099 -23.3072
1 533 -30.905 11.6581 -21.8421
1 531 -33.3276 11.491 -21.333
1 214 -27.6007 11.1197 -24.4241
1 177 -29.7668 11.0225 -23.9865
1 213 -28.9597 12.9395 -22.584
1 216 -26.8499 12.2729 -22.1101
1 180 -25.5022 11.1538 -23.7443
1 219 -24.0533 12.1263 -22.1267
1 252 -25.2101 14.0878 -23.2317
1 220 -22.7963 11.114 -23.7974
1 8671 -21.3484 12.0118 -21.9751
1 221 -22.4441 13.8168 -23.1969
1 8673 -19.6001 13.6023 -23.0392
1 256 -54.8884 14.5368 -21.3921
1 258 -53.3085 15.7532 -22.6088
1 53 -52.6249 16.9856 -24.9345
1 226 -51.3403 14.7957 -23.9272
1 260 -51.102 17.2071 -23.0897
1 227 -50.0665 15.5861 -21.8163
1 228 -48.8448 15.048 -23.8518
1 262 -48.5228 17.439 -23.1058
1 197 -46.5366 15.3979 -23.9317
1 231 -46.3124 17.5153 -23.1603
1 229 -47.5386 15.6427 -21.8892
1 555 -45.141 16.1046 -21.577
1 199 -44.1244 15.7433 -23.9879
1 559 -41.5649 15.9507 -23.8966
1 557 -42.6508 16.2399 -21.5603
1 203 -39.9085 14.1094 -24.7928
1 526 -40.6979 14.2396 -22.433
1 561 -39.3072 16.4195 -23.7039
1 528 -38.5094 14.7394 -22.3649
1 560 -40.3521 16.5867 -21.5018
1 205 -37.2949 14.5651 -24.4898
1 563 -36.8638 16.9051 -23.5911
1 565 -35.8737 15.2242 -22.4511
1 207 -34.8304 14.8597 -24.542
1 243 -34.4576 17.1812 -23.263
1 564 -35.413 17.262 -21.3121
1 244 -32.4945 15.2407 -24.2232
1 209 -33.49 15.3089 -21.9234
1 247 -31.243 15.7761 -22.0866
1 245 -32.0314 17.6021 -23.4824
1 250 -27.6101 14.7 -23.5716
1 210 -29.8544 15.7453 -23.9337
1 246 -29.584 18.0705 -23.2043
1 284 -27.5082 16.9988 -22.8647
1 249 -29.0024 15.5789 -21.6988
1 251 -26.4203 15.2184 -21.4508
1 254 -23.4674 15.5435 -24.4148
1 67 -26.105 15.8953 -24.9399
1 253 -24.812 16.8565 -22.9062
1 577 -23.7704 14.9446 -21.5439
1 8705 -20.6484 15.5161 -24.1201
1 8703 -22.0794 16.4954 -22.5242
1 9119 -19.1894 16.3749 -22.3653
1 9117 -20.8411 14.82 -21.3161
1 294 -53.6027 18.2207 -22.6133
1 264 -49.8824 18.9819 -24.3868
1 296 -50.9935 19.5169 -22.0834
1 266 -47.2374 19.7534 -24.5581
1 265 -48.5203 19.8779 -22.2727
1 267 -46.0633 19.9923 -22.2655
1 233 -43.7649 18.0169 -22.8957
1 300 -44.6202 19.6426 -24.2909
1 269 -42.3363 20.089 -24.3295
1 302 -43.4581 20.3843 -22.3573
1 239 -38.1896 18.297 -24.9395
1 593 -41.3134 18.2084 -22.8547
1 271 -39.8238 20.1915 -24.2812
1 595 -38.9433 18.6037 -22.7092
1 627 -40.9744 20.5365 -21.9861
1 629 -38.5165 20.8786 -21.9503
1 273 -37.5659 20.8875 -24.1463
1 597 -36.5406 19.0672 -22.7038
1 275 -35.0515 21.2434 -23.91
1 631 -36.1732 21.1654 -21.7315
1 277 -33.1917 19.2173 -25.033
1 599 -34.1861 19.3287 -22.6258
1 279 -31.703 19.8074 -22.5562
1 278 -30.6625 19.4529 -24.8277
1 314 -32.6705 21.6441 -23.9053
1 282 -28.261 19.6094 -24.5502
1 281 -29.2574 20.498 -22.4793
1 285 -26.9852 19.891 -22.1342
1 322 -26.3492 20.8325 -25.4698
1 255 -23.1342 18.3718 -23.6579
1 286 -25.7043 18.7007 -23.8955
1 611 -24.2311 19.5051 -21.8808
1 287 -25.3049 21.5025 -23.1344
1 8706 -20.2414 18.1437 -23.5788
1 289 -22.7828 21.2359 -22.9752
1 8736 -21.4294 19.3128 -21.727
1 8423 -21.5288 20.0206 -24.477
1 8738 -19.8775 21.0678 -22.8111
1 299 -47.7052 21.9496 -21.1887
1 303 -41.7817 22.2831 -23.4146
1 301 -45.2246 22.2652 -21.196
1 305 -39.4049 22.6328 -23.4283
1 695 -38.7558 24.8561 -22.8433
1 307 -36.851 23.1903 -23.1893
1 309 -34.3248 23.3078 -22.987
1 633 -33.59 21.7075 -21.4277
1 316 -30.433 21.9223 -23.7122
1 311 -32.0751 23.7408 -22.8874
1 635 -31.2304 21.9862 -21.2976
1 319 -28.5793 23.9729 -24.7703
1 283 -27.5921 21.9998 -23.7421
1 641 -27.4656 24.5984 -22.6484
1 639 -29.2077 23.1137 -21.9754
1 643 -26.7577 22.5607 -21.3976
1 320 -26.079 23.4911 -24.5557
1 8456 -23.5844 23.245 -24.262
1 645 -25.0817 23.9703 -22.3697
1 8424 -20.9285 22.7828 -23.8366
1 8771 -19.4904 23.9202 -22.0079
1 8769 -22.3659 23.9304 -21.8583
1 701 -35.2009 25.2687 -24.1294
1 699 -36.3725 25.4989 -22.1658
1 667 -34.1808 25.7841 -22.0959
1 669 -32.4966 25.95 -24.1411
1 671 -31.6716 26.106 -21.5767
1 315 -30.1293 24.8738 -23.2576
1 705 -29.9575 27.4408 -22.7443
1 317 -28.4195 26.3885 -24.4165
1 677 -27.4157 27.262 -22.1643
1 323 -23.3764 25.7526 -23.0547
1 321 -25.6927 26.0879 -23.5311
1 644 -24.7928 26.9634 -21.4189
1 711 -25.2164 28.6569 -23.1603
1 8457 -20.7642 25.5671 -23.0989
1 8802 -22.229 26.6068 -21.1707
1 8804 -19.499 26.7749 -21.2598
1 709 -27.0895 30.1395 -21.6753
1 679 -22.9587 28.3427 -22.6688
1 713 -24.3132 29.7567 -21.0407
1 2227 -22.7636 -23.0202 -19.6638
1 10304 -19.98 -23.0024 -19.7138
1 10897 -21.2875 -22.1722 -17.6806
1 1196 -32.6001 -18.7577 -18.3735
1 1708 -29.9724 -18.6163 -18.9679
1 1712 -27.2543 -18.633 -19.3207
1 1716 -22.6764 -19.3576 -21.539
1 1683 -24.3333 -21.1804 -20.5836
1 1204 -25.6272 -19.3645 -21.4007
1 1714 -24.2035 -18.584 -19.4864
1 1681 -25.667 -20.4579 -18.1199
1 1682 -22.7719 -20.2914 -18.6668
1 9809 -19.9266 -19.1621 -21.6006
1 10336 -21.4376 -21.1405 -20.504
1 10337 -20.0384 -20.3152 -18.7454
1 1717 -21.4463 -18.5268 -19.7382
1 16857 -56.1361 -15.6598 -18.0507
1 16859 -54.4038 -14.2157 -19.0422
1 715 -51.8367 -14.6582 -18.5891
1 1178 -49.1314 -14.9524 -18.2805
1 1194 -34.0159 -16.9119 -19.4614
1 726 -33.1352 -14.9928 -20.5598
1 1198 -31.5528 -16.8921 -19.7193
1 727 -30.1386 -15.0915 -20.6191
1 1200 -28.5381 -16.6368 -19.9404
1 1201 -26.948 -15.8149 -18.4118
1 1199 -29.8326 -15.7694 -17.9561
1 1203 -25.4188 -16.6252 -20.3651
1 1750 -22.715 -16.7703 -20.5948
1 1238 -24.196 -14.8579 -21.5453
1 1748 -24.0445 -15.7434 -18.5613
1 1241 -21.4677 -14.8476 -21.5668
1 9842 -20.1044 -16.7584 -20.691
1 1751 -21.4232 -15.9075 -18.8056
1 16446 -55.4657 -12.3693 -19.9567
1 16892 -54.2413 -11.3848 -18.1863
1 732 -52.8031 -12.674 -19.7369
1 734 -50.8662 -11.0485 -20.3862
1 716 -49.8935 -13.0999 -19.3424
1 733 -51.581 -11.7903 -17.7711
1 717 -48.2269 -11.4943 -20.0871
1 1180 -47.1082 -13.5864 -18.9696
1 1182 -45.5039 -11.7805 -19.5786
1 1214 -47.0033 -10.87 -18.0322
1 1696 -41.5879 -11.6616 -18.2345
1 1700 -39.2692 -11.9533 -18.4116
1 1193 -35.7983 -12.0141 -19.5482
1 725 -34.7615 -13.3903 -21.327
1 1702 -37.303 -13.9978 -18.231
1 1195 -34.4064 -13.9614 -18.7039
1 1232 -31.3726 -13.9501 -18.9423
1 1230 -32.9785 -12.2245 -19.7774
1 1266 -31.3541 -11.0137 -18.157
1 757 -30.0929 -12.1419 -19.8593
1 1234 -28.5486 -13.9661 -18.9934
1 759 -27.2252 -12.4169 -20.3117
1 1268 -28.449 -11.2415 -18.2729
1 1236 -25.7778 -14.1668 -19.5102
1 1270 -25.6733 -11.167 -18.5337
1 761 -24.277 -12.3899 -20.5443
1 1239 -22.8383 -14.1767 -19.5766
1 1272 -22.6523 -11.1808 -18.8635
1 763 -21.38 -12.2095 -20.711
1 9874 -20.0962 -14.0355 -19.9488
1 1274 -19.9084 -11.3866 -19.0608
1 16447 -53.6095 -10.6562 -21.08
1 3504 -52.0865 -14.2425 -0.0356748
1 16478 -55.1313 -9.4296 -19.3539
1 16480 -53.3826 -7.89604 -20.2026
1 766 -52.441 -9.82278 -18.9206
1 768 -50.5423 -8.28087 -19.5993
1 735 -49.7041 -10.1558 -18.4427
1 800 -51.9752 -7.01067 -18.0525
1 736 -48.7053 -9.33632 -21.1035
1 737 -47.7091 -8.55301 -19.1747
1 718 -46.275 -9.78444 -20.6505
1 1184 -43.1776 -10.1531 -19.8687
1 719 -44.5931 -7.92173 -21.1586
1 1216 -45.1659 -9.01969 -18.6355
1 1218 -43.1073 -7.27229 -19.2172
1 1185 -41.9029 -9.22128 -17.6928
1 1186 -41.8495 -8.26387 -20.7783
1 1698 -40.3639 -9.98147 -19.7329
1 1187 -40.3887 -7.58252 -18.677
1 1189 -38.9264 -8.53652 -20.8472
1 1734 -39.0789 -9.43762 -17.6395
1 1191 -37.679 -10.3296 -19.7972
1 1228 -34.4017 -10.497 -20.5105
1 1226 -35.9942 -8.75609 -20.9963
1 1225 -37.2692 -7.68251 -18.9722
1 1262 -34.3153 -7.62486 -19.5599
1 1227 -35.6256 -9.35942 -18.5274
1 1264 -32.8118 -9.32697 -18.9071
1 755 -31.625 -10.4096 -20.7627
1 789 -31.4637 -7.58065 -19.7712
1 791 -29.9577 -9.25975 -19.1335
1 792 -28.9363 -10.4229 -21.1048
1 793 -27.2228 -9.48296 -19.569
1 826 -28.5923 -7.6364 -20.1555
1 828 -25.6725 -7.72553 -20.3977
1 795 -24.2857 -9.63749 -19.6177
1 830 -23.0194 -7.74476 -20.6494
1 1306 -22.7809 -8.4883 -18.0585
1 797 -21.3662 -9.43242 -19.8725
1 832 -20.0958 -7.75763 -21.0254
1 1308 -20.0117 -8.644 -18.0281
1 16512 -54.2481 -5.95645 -21.4342
1 16543 -55.7889 -4.88174 -19.5571
1 16511 -54.794 -6.76209 -18.5881
1 16513 -52.9781 -5.26219 -19.1795
1 342 -51.2933 -6.25465 -20.7812
1 802 -50.2064 -5.58228 -18.7783
1 376 -51.2464 -3.54469 -19.8242
1 344 -49.6741 -4.42634 -21.2458
1 739 -45.9579 -6.83319 -19.5007
1 770 -48.8025 -6.43386 -20.3228
1 804 -48.3387 -3.78027 -19.1987
1 772 -47.0009 -4.99518 -20.7513
1 773 -45.7234 -4.10839 -18.9079
1 771 -47.5342 -5.82128 -18.1743
1 741 -44.2638 -5.33462 -20.2311
1 1252 -42.9637 -4.55812 -18.1799
1 1250 -44.7787 -6.00818 -17.5946
1 1222 -39.9903 -4.02407 -20.8523
1 1220 -41.5231 -5.7544 -20.1446
1 1223 -38.6973 -6.07891 -19.9569
1 1221 -40.0686 -4.787 -18.274
1 785 -34.6078 -4.13713 -21.2374
1 1258 -37.1761 -4.01166 -21.1162
1 1260 -35.9006 -5.9159 -20.415
1 1296 -34.3711 -4.91407 -18.7765
1 1259 -37.309 -4.83015 -18.4146
1 787 -33.0975 -5.8615 -20.5381
1 823 -31.3781 -4.95911 -18.9508
1 1298 -32.6773 -6.64477 -17.9259
1 824 -30.2825 -5.83219 -20.9046
1 402 -27.3439 -5.85804 -21.0843
1 860 -28.52 -4.88141 -19.2722
1 827 -26.8874 -6.76687 -18.6228
1 825 -29.7861 -6.67823 -18.1184
1 404 -24.2863 -5.63681 -21.5088
1 862 -25.7009 -4.9254 -19.5369
1 829 -24.0614 -6.7471 -18.7917
1 863 -23.9424 -4.008 -18.0348
1 864 -22.92 -4.91708 -19.8458
1 831 -21.3462 -6.57592 -19.0881
1 866 -20.1068 -4.78602 -20.2588
1 865 -21.3758 -4.01503 -18.2371
1 18143 -56.4072 11.2531 -2.72524
1 16545 -54.049 -3.45965 -20.4083
1 16578 -53.7053 -0.796985 -19.5627
1 16576 -55.5311 -2.02977 -18.9237
1 16546 -52.8808 -2.66083 -18.3442
1 409 -52.3312 -1.68961 -20.9915
1 410 -50.9257 -0.987819 -18.8873
1 378 -49.4421 -1.86373 -20.4116
1 836 -50.1074 -2.72028 -17.7079
1 838 -48.3202 -1.40372 -18.4074
1 380 -47.7018 -0.478047 -21.1755
1 806 -46.633 -2.07078 -20.0016
1 807 -45.4468 -1.70692 -17.9498
1 808 -44.8839 -0.634935 -20.8448
1 775 -43.7819 -2.63423 -19.4971
1 777 -42.0846 -0.548921 -20.6583
1 1254 -41.2014 -2.8443 -19.1187
1 1256 -38.6707 -2.80433 -19.2044
1 1290 -38.6761 -0.175178 -18.4304
1 779 -39.3446 0.209967 -20.5203
1 1288 -41.1563 -0.276573 -18.543
1 747 -37.2195 -1.21868 -20.0721
1 1294 -35.8877 -3.14583 -19.3963
1 1292 -35.9395 -0.32374 -18.2388
1 819 -34.7004 -1.30187 -20.4065
1 821 -33.081 -3.14571 -19.7724
1 856 -31.652 -1.25727 -20.7892
1 855 -32.9891 -0.216899 -18.8854
1 857 -31.4197 -2.12498 -18.2203
1 858 -30.2236 -3.15955 -20.1011
1 892 -30.0757 -0.318697 -19.2269
1 434 -28.8091 -1.25584 -21.085
1 436 -27.1629 -3.00631 -20.5175
1 470 -26.9801 -0.336753 -19.568
1 894 -28.4703 -2.09591 -18.679
1 471 -25.7459 -1.14879 -21.382
1 896 -25.6439 -2.20806 -18.8624
1 438 -24.3311 -3.1163 -20.852
1 472 -24.1357 -0.222471 -19.7704
1 898 -22.9284 -2.13897 -19.1324
1 440 -21.4886 -3.10032 -21.0098
1 867 -20.0279 -2.14393 -19.18
1 900 -21.2156 -0.371863 -20.1033
1 4609 -35.0539 -22.8882 -0.0614787
1 16611 -53.6527 2.14598 -18.6172
1 16263 -54.9009 1.24768 -20.5366
1 16265 -53.2743 3.03689 -21.4291
1 16609 -55.2701 0.397502 -18.1015
1 443 -51.9872 0.927453 -20.0583
1 445 -50.377 2.46065 -20.9256
1 412 -49.2443 0.683948 -19.6382
1 444 -50.787 1.77818 -18.0786
1 446 -49.0988 3.27509 -18.7784
1 414 -47.501 2.14505 -20.4281
1 841 -46.1191 3.08707 -18.3826
1 840 -46.5052 0.208399 -19.2032
1 872 -47.9272 1.26485 -17.6416
1 1286 -43.7507 -0.250396 -18.7211
1 809 -44.5909 1.86738 -19.6761
1 844 -43.0711 3.70254 -20.732
1 843 -43.5836 3.61715 -18.1974
1 811 -42.0494 1.63588 -19.4527
1 813 -39.2713 2.51015 -19.8093
1 845 -41.3626 4.1196 -18.4712
1 781 -37.1278 1.26517 -19.8998
1 815 -36.0194 3.46319 -20.2342
1 817 -34.5199 1.25112 -19.6301
1 430 -30.1893 3.18675 -21.2364
1 852 -33.1029 3.15651 -20.8361
1 854 -31.4183 1.46581 -19.9796
1 853 -32.7948 2.21024 -18.3016
1 890 -29.8146 2.19583 -18.3224
1 468 -28.4659 1.41652 -20.2273
1 504 -26.9175 2.37368 -18.7739
1 505 -25.6964 1.43482 -20.7444
1 932 -24.2139 2.41385 -19.1492
1 474 -22.6262 1.44286 -20.8542
1 899 -22.6072 0.766439 -18.1407
1 9478 -19.9251 0.532176 -18.4406
1 9016 -19.7377 1.51226 -21.1348
1 901 -21.0362 2.44335 -19.2554
1 16327 -56.1852 5.15432 -18.2551
1 16296 -54.7195 3.99002 -19.9207
1 16677 -54.5725 6.71689 -19.088
1 16329 -55.7956 6.14042 -20.9209
1 16298 -52.9475 5.49769 -20.4916
1 16644 -53.519 4.76116 -17.9956
1 477 -51.9334 3.65689 -19.572
1 511 -51.5717 6.22121 -18.5683
1 479 -50.0087 5.05654 -20.0842
1 155 -51.3655 6.96201 -21.2413
1 447 -48.609 4.05829 -21.5876
1 842 -45.6429 3.51046 -21.0934
1 906 -48.9177 5.90776 -18.1317
1 448 -48.3017 6.90266 -20.839
1 874 -47.3289 4.98964 -19.5032
1 876 -44.9684 5.38142 -19.5201
1 878 -42.5852 5.97835 -19.5763
1 846 -40.9273 4.06192 -20.7393
1 847 -40.2358 6.27275 -19.4099
1 848 -38.4296 4.61231 -20.3667
1 1324 -37.9291 3.51297 -17.9706
1 883 -37.8146 6.93842 -19.3363
1 850 -34.5972 5.01365 -21.3154
1 851 -34.1588 4.18239 -18.6202
1 849 -36.2646 5.24235 -19.0682
1 886 -33.033 5.99142 -19.9086
1 888 -31.3807 3.87139 -19.2193
1 922 -31.0159 6.86156 -18.3335
1 464 -30.0215 5.90531 -20.1919
1 466 -28.5654 4.23576 -19.4366
1 500 -28.5224 6.83241 -18.7579
1 501 -27.2928 5.91678 -20.6527
1 507 -22.8459 4.04368 -20.0866
1 503 -25.665 4.22804 -20.1537
1 539 -25.7136 7.05528 -19.2042
1 183 -24.2279 6.01292 -21.0233
1 506 -24.1073 5.02847 -18.2079
1 508 -22.7637 6.81433 -19.28
1 509 -21.4674 5.62127 -20.9709
1 934 -21.3881 4.80924 -18.2653
1 9017 -19.6801 4.16549 -20.3514
1 9511 -19.9051 6.50288 -19.3912
1 189 -53.7031 10.2331 -20.7336
1 545 -54.3849 9.48143 -17.9813
1 16362 -55.5385 8.85436 -20.06
1 3315 -20.8815 30.1603 -1.78707
1 16331 -52.686 8.19232 -19.5667
1 513 -50.999 9.89586 -20.4124
1 480 -50.0038 7.99145 -19.2965
1 516 -49.8641 10.5427 -18.4821
1 450 -46.0477 7.37018 -20.6319
1 908 -47.3967 7.68104 -18.7165
1 482 -48.1558 9.59674 -19.9604
1 484 -45.7142 9.57201 -19.8535
1 910 -44.4614 7.57137 -18.3504
1 452 -43.8562 7.80921 -20.8964
1 486 -43.5971 10.0255 -19.8248
1 912 -42.1172 8.0909 -18.5191
1 880 -41.3805 8.17082 -20.7525
1 914 -40.9427 10.3297 -19.9477
1 881 -39.7102 8.42657 -18.1898
1 882 -39.0713 8.61336 -20.6243
1 884 -35.2962 7.25626 -19.698
1 460 -34.2448 9.1607 -20.6676
1 493 -36.6561 8.93691 -20.5556
1 918 -37.1816 9.11968 -18.2639
1 462 -31.474 7.60215 -21.0676
1 496 -31.6905 9.91538 -20.3212
1 920 -32.7311 8.21575 -19.0356
1 955 -33.4008 10.7364 -18.8447
1 498 -29.8373 8.6103 -19.8385
1 537 -27.3073 8.89006 -19.973
1 536 -28.454 9.77353 -18.1061
1 217 -25.6279 10.4415 -21.1591
1 540 -25.4193 9.77686 -18.3451
1 541 -24.3263 8.80715 -20.051
1 543 -22.7473 10.405 -20.9225
1 968 -22.6465 9.48533 -18.5328
1 510 -21.2943 8.53717 -20.1432
1 9050 -19.6832 9.46394 -18.6083
1 9084 -20.0338 10.2106 -21.2611
1 16364 -55.251 11.174 -19.2681